ITEM: TIMESTEP
8.523116665844658
ITEM: NUMBER OF ATOMS
1485
ITEM: BOX BOUNDS
1.0317460317460316 110.39682539682539
1.0317460317460316 87.28571428571428
2.5 48.0
ITEM: ATOMS id x y z
1	91.211	36.965	33.186
2	72.526	34.532	32.640
3	92.185	30.722	30.691
4	75.214	27.177	32.732
5	52.043	19.826	31.972
6	40.273	12.715	27.944
7	59.131	12.253	33.527
8	48.573	86.573	33.468
9	19.154	83.367	33.433
10	69.275	79.243	32.987
11	89.228	78.051	32.086
12	99.415	73.871	32.997
13	56.837	60.170	32.619
14	24.989	53.951	32.584
15	1.133	42.732	31.946
16	6.306	41.654	30.999
17	72.610	40.624	31.726
18	108.527	32.902	32.979
19	108.774	15.957	30.785
20	82.733	39.512	34.910
21	50.742	40.703	31.303
22	5.491	46.897	32.841
23	88.020	55.495	32.288
24	23.886	70.867	33.479
25	52.759	57.058	33.204
26	86.999	57.456	39.047
27	16.290	51.727	32.568
28	63.201	45.192	33.575
29	108.040	40.676	34.887
30	71.930	29.897	28.050
31	11.087	22.856	34.089
32	21.039	10.679	34.609
33	46.752	17.245	30.066
34	11.879	4.999	31.976
37	105.547	83.785	32.701
38	33.178	82.514	33.668
39	37.415	78.353	34.184
41	38.213	63.325	33.428
42	41.426	57.594	30.973
43	65.514	57.161	32.511
44	30.013	3.889	34.841
45	94.013	14.359	33.618
46	83.447	4.015	29.528
47	61.708	79.838	32.280
48	68.801	85.278	30.603
49	100.277	86.631	28.840
50	31.141	72.910	32.677
51	80.325	72.560	31.601
52	36.507	72.593	30.687
53	65.863	70.313	30.020
54	96.044	67.035	30.466
55	1.569	64.850	30.015
56	26.332	58.904	29.667
57	2.044	14.250	29.469
58	20.649	58.628	29.920
59	56.940	44.854	30.896
60	48.209	34.952	29.951
61	49.418	29.871	31.279
62	1.620	24.960	32.962
63	88.213	19.760	30.418
64	38.182	19.397	29.631
65	12.885	17.600	31.115
66	65.435	16.191	28.519
67	7.733	83.419	29.789
68	75.604	52.434	30.418
69	54.771	79.893	34.387
70	84.706	34.318	31.609
71	69.326	44.712	27.643
72	10.065	72.519	32.029
73	109.688	69.336	29.355
74	44.133	62.410	30.052
75	98.454	27.148	32.618
76	81.174	22.674	31.449
77	53.442	14.091	32.832
78	14.620	10.837	31.946
79	35.873	11.762	30.606
80	53.339	8.893	30.275
81	43.190	39.922	31.432
82	80.785	9.543	30.823
83	104.054	6.396	31.347
84	93.263	3.802	30.335
85	60.689	3.165	28.471
86	77.918	85.584	31.581
87	85.383	75.280	26.021
88	102.228	70.978	27.695
89	103.782	63.447	31.339
90	67.045	63.037	32.036
91	21.055	52.614	28.323
92	70.970	8.339	32.507
93	74.549	4.973	30.059
94	29.336	10.609	34.097
95	83.062	13.515	32.405
96	50.531	28.266	36.866
97	93.631	25.015	35.429
98	70.608	23.034	35.396
99	65.887	20.944	35.661
100	96.754	19.416	35.825
101	76.085	17.677	35.599
102	37.739	15.670	34.456
103	9.982	11.324	35.162
104	98.498	4.525	34.972
105	107.577	27.596	36.411
106	15.890	7.051	36.711
108	8.066	85.901	34.431
109	76.808	76.310	34.427
110	58.092	74.519	34.905
111	16.239	73.751	32.656
112	36.543	68.843	35.626
113	17.042	57.904	34.584
114	95.789	54.519	30.590
115	88.864	50.484	36.163
116	67.560	5.153	37.458
117	28.920	42.950	34.991
118	80.998	29.099	35.127
119	99.111	34.512	37.316
120	93.331	45.165	33.498
121	7.621	33.601	34.616
122	58.321	30.602	37.890
123	89.848	30.925	36.336
124	28.816	24.086	35.951
125	34.693	22.946	38.253
126	13.883	11.344	41.194
127	43.176	6.149	37.623
128	75.087	1.915	34.947
129	51.419	34.265	35.435
131	84.265	78.622	38.429
132	65.557	74.949	35.495
133	40.409	73.283	36.272
134	92.382	71.587	34.523
135	5.075	69.930	36.239
136	31.807	66.736	36.195
137	12.799	61.058	34.144
138	47.486	54.972	36.211
139	52.933	47.418	35.525
140	63.970	86.276	36.310
141	39.305	83.461	30.977
142	62.035	35.629	33.553
143	87.598	17.460	39.072
144	46.157	11.218	34.748
145	2.308	7.140	33.332
147	96.417	79.828	34.234
148	86.455	73.808	33.445
149	50.490	71.476	32.963
150	78.829	68.350	35.177
151	44.450	67.456	33.005
152	18.545	64.505	33.965
153	26.916	31.221	34.214
154	52.240	64.692	32.311
155	41.095	51.233	33.122
156	37.684	45.927	33.196
157	34.678	27.755	33.597
158	65.793	28.484	33.379
159	44.350	25.442	35.433
161	16.916	21.342	34.883
162	104.110	19.008	35.017
163	22.752	16.502	33.849
164	90.225	50.167	30.018
165	16.841	32.645	35.955
166	33.722	33.248	34.768
167	101.355	42.357	34.926
168	102.029	14.771	36.932
169	89.421	12.580	35.828
170	86.985	7.717	36.461
172	103.603	62.505	36.653
173	35.428	51.113	34.066
174	105.424	47.475	35.979
175	68.997	48.572	35.249
176	17.869	46.093	33.599
177	24.512	38.233	33.981
178	21.340	26.558	36.309
179	85.162	83.769	33.538
180	72.089	69.442	34.626
181	82.308	67.237	29.626
183	86.653	61.599	35.028
184	2.612	56.943	31.843
185	105.143	56.596	34.325
186	9.860	51.097	33.415
187	74.306	46.502	34.161
188	29.418	18.173	34.631
189	81.816	44.817	33.672
190	3.177	80.110	30.198
191	42.784	73.928	31.031
192	24.005	1.734	26.831
193	55.999	81.707	28.682
194	104.876	77.482	28.425
196	55.461	48.207	26.546
197	97.950	47.190	27.232
198	61.681	44.260	27.210
199	47.079	44.342	25.848
200	64.748	37.873	25.890
201	12.502	22.824	27.459
202	54.441	14.519	26.963
203	31.805	15.315	28.116
204	102.397	9.374	26.587
205	11.428	8.358	26.577
206	86.568	81.563	26.962
207	108.030	65.214	25.367
208	12.319	60.313	21.830
209	52.481	54.249	26.031
210	33.032	48.778	25.621
211	30.425	2.888	27.881
212	66.306	4.735	28.290
213	33.902	7.220	26.984
214	94.962	8.728	27.459
215	55.190	32.594	29.421
216	92.978	16.074	26.599
218	49.412	81.593	27.545
219	16.499	79.966	29.129
220	93.370	80.690	27.500
221	73.456	77.340	29.538
222	13.245	76.645	27.488
223	64.555	75.152	26.519
224	90.753	45.892	27.485
225	76.748	70.498	26.973
226	72.722	64.521	24.427
227	103.264	58.832	22.123
228	15.233	57.183	26.665
229	17.905	46.904	28.283
230	105.027	44.052	28.898
231	21.644	40.339	27.895
232	109.746	32.262	26.883
233	7.036	20.453	27.278
234	74.773	12.704	26.624
235	28.086	70.616	26.952
236	9.790	39.674	26.683
237	82.291	37.215	27.313
238	22.071	33.881	28.563
239	5.210	12.955	21.551
240	108.223	8.485	25.846
241	71.610	84.611	25.125
242	99.877	82.858	22.323
243	90.896	81.912	22.053
244	42.912	79.819	28.350
245	27.646	64.270	23.805
246	44.998	61.984	23.841
247	70.492	51.776	25.059
248	80.822	14.037	24.519
250	71.411	37.129	25.549
251	28.296	26.038	25.038
252	53.276	25.901	25.520
253	72.077	19.534	25.641
254	80.353	20.442	25.235
255	86.321	20.060	24.969
256	99.617	14.718	27.859
257	49.217	13.615	25.139
258	67.720	9.242	24.988
259	38.656	44.235	24.044
260	76.992	34.820	26.548
261	3.798	16.903	24.676
262	41.239	25.321	25.480
263	78.100	29.179	26.733
264	94.191	22.270	25.992
265	66.526	23.121	24.463
266	44.694	20.965	26.680
267	25.035	17.854	26.908
268	20.134	85.805	25.057
269	104.036	83.566	26.917
270	64.377	81.974	26.378
271	49.778	71.362	23.702
272	49.957	20.138	24.436
273	22.273	70.541	28.007
274	1.186	66.865	24.443
275	49.346	65.471	24.115
276	66.050	59.978	26.193
277	25.901	50.898	25.163
278	76.149	50.430	22.851
279	88.778	35.945	25.228
280	36.282	36.059	25.904
281	51.569	31.204	24.543
282	61.051	26.516	26.989
283	7.340	67.373	26.766
284	77.273	41.893	27.594
285	79.624	47.604	26.958
286	59.886	52.820	24.790
287	94.599	31.766	24.998
288	15.003	28.095	30.185
289	104.541	24.818	31.488
290	22.496	22.775	29.315
291	47.074	6.878	30.476
292	32.747	78.998	27.584
293	54.219	69.123	27.756
294	32.653	63.071	28.687
295	83.908	51.055	29.645
296	98.584	34.068	28.608
297	82.968	42.569	29.094
298	43.806	29.887	28.980
299	85.506	29.544	28.080
300	90.261	25.212	28.922
301	47.507	24.245	30.631
302	99.738	19.079	30.587
303	104.909	17.123	25.912
304	57.966	18.072	29.194
305	76.860	17.869	29.977
306	23.162	12.368	29.526
307	63.933	31.521	27.899
308	8.451	13.666	28.225
309	17.336	37.356	31.709
310	32.039	41.573	30.091
311	94.588	71.526	24.380
312	89.658	71.039	30.146
313	11.743	66.118	31.701
314	39.550	60.735	25.866
315	3.048	53.926	27.567
316	67.005	52.226	30.985
317	14.609	41.767	33.828
318	58.923	39.155	30.238
319	59.077	24.131	31.999
320	95.726	39.269	30.101
321	75.958	23.752	25.917
322	4.847	1.186	27.842
324	82.284	84.632	29.057
325	53.885	74.700	31.177
326	62.382	65.082	28.949
327	8.920	60.039	28.646
328	33.554	57.474	29.563
329	61.952	49.706	30.493
330	44.446	46.462	31.147
331	68.612	20.547	30.453
332	79.565	79.524	30.628
333	63.259	9.578	28.440
335	80.288	56.035	30.862
336	8.815	53.901	28.562
337	11.262	44.839	28.805
338	27.316	38.646	26.994
339	6.233	26.364	27.841
340	30.910	21.878	28.084
341	109.560	22.142	27.431
342	42.208	5.239	30.127
343	12.148	1.467	27.155
344	107.112	55.912	25.457
345	85.659	1.122	25.194
346	28.927	83.195	27.219
347	1.401	74.287	26.440
348	39.405	68.404	27.976
349	94.905	62.801	26.577
350	20.881	60.580	24.313
351	1.373	60.023	24.914
352	61.466	57.214	27.155
353	39.053	53.048	26.660
354	101.925	51.951	28.378
355	64.478	87.198	27.619
356	16.726	5.282	28.844
357	75.732	59.937	29.040
358	15.760	63.261	25.738
359	23.555	76.373	29.541
360	33.441	71.125	24.474
361	22.396	64.069	30.083
362	83.875	60.186	29.436
363	47.685	56.384	30.196
364	48.984	48.674	30.600
365	24.850	46.719	30.135
366	108.151	39.076	29.102
367	31.046	33.946	26.752
368	101.339	58.849	27.136
369	103.361	34.547	32.646
370	88.710	28.656	23.989
371	31.386	28.495	29.324
372	17.038	19.960	27.587
373	59.291	10.913	24.965
374	27.933	7.726	29.935
375	88.531	6.331	27.413
376	109.556	1.992	27.908
377	86.796	2.708	34.033
378	47.243	69.951	27.955
379	8.141	33.132	27.790
380	99.649	48.295	32.862
381	30.239	49.271	36.945
384	81.199	80.148	44.078
385	66.851	75.502	47.430
386	8.521	70.008	43.022
387	84.059	67.721	45.656
388	85.413	61.113	43.657
389	54.196	58.004	43.765
391	87.957	51.987	42.980
392	27.189	50.028	44.050
394	93.671	44.986	45.540
395	58.118	44.828	46.043
396	46.376	44.858	44.595
397	57.178	38.703	44.505
398	44.265	22.575	43.958
399	67.007	21.702	41.135
400	60.018	17.842	42.793
401	77.437	14.121	44.960
402	53.143	10.242	44.378
403	29.325	24.403	44.222
405	29.372	43.943	45.050
406	58.679	78.102	40.870
410	81.248	43.827	44.522
411	96.031	33.140	44.556
412	13.399	19.174	44.566
413	90.317	19.073	43.985
414	71.223	16.788	43.638
415	103.835	12.375	43.345
416	27.788	12.262	43.308
417	110.026	73.992	44.765
418	40.186	66.837	42.898
419	56.755	65.422	44.967
422	45.973	51.733	43.516
423	22.470	52.601	44.160
424	15.896	50.460	45.472
425	22.824	46.991	46.210
426	82.417	8.764	44.010
427	62.719	9.646	44.417
428	74.942	6.821	41.103
429	45.818	79.207	43.638
430	14.258	71.810	44.326
431	99.105	71.781	42.493
432	61.025	59.530	42.526
433	11.441	58.513	41.968
434	95.537	38.826	44.738
435	49.133	37.878	45.064
436	15.479	34.899	43.698
437	28.874	31.719	40.536
438	65.028	31.563	43.517
439	53.323	81.654	43.370
440	87.789	29.998	43.155
441	6.727	25.792	42.128
442	97.371	5.786	41.034
443	88.751	5.752	44.936
444	45.995	3.993	42.817
445	39.301	3.809	41.364
446	73.434	83.412	41.029
447	9.421	77.295	43.215
448	69.225	77.747	41.591
449	75.340	59.831	41.589
450	57.625	28.087	43.428
452	25.169	4.089	46.019
453	75.834	24.675	39.243
454	16.362	79.121	43.558
455	40.384	74.384	44.166
456	48.286	72.665	44.492
457	65.417	70.974	42.159
458	20.226	68.774	44.527
459	106.145	67.854	43.208
460	44.509	65.739	45.938
461	95.056	64.557	43.193
462	31.478	59.049	47.457
463	6.275	10.947	41.908
464	98.001	55.983	43.929
465	104.055	48.343	41.986
466	8.823	45.719	42.329
467	43.876	35.877	43.166
468	101.824	31.280	43.126
469	48.724	28.226	44.146
471	70.605	26.520	41.859
473	22.428	23.023	43.327
474	10.459	51.690	43.841
475	22.334	78.422	44.900
476	65.703	84.801	45.970
477	103.483	86.389	44.424
479	63.548	36.639	45.504
485	82.350	29.478	47.650
488	90.331	25.848	40.149
489	5.630	15.393	46.749
490	58.399	11.474	46.953
491	88.130	12.063	45.620
492	100.586	3.765	46.716
493	24.065	86.352	43.377
494	4.741	72.528	45.707
495	28.925	64.693	45.616
497	82.159	51.261	45.471
498	98.612	21.211	46.829
499	98.386	51.069	46.496
500	66.850	58.423	45.737
501	49.802	57.635	47.668
504	91.432	57.061	43.009
511	16.438	57.104	45.925
513	35.573	3.411	46.524
514	41.399	5.959	46.952
516	19.501	82.644	46.258
517	87.071	78.006	46.136
518	56.465	74.244	46.969
519	83.316	72.589	42.089
520	75.204	70.073	45.668
521	26.813	70.535	46.889
522	42.328	15.467	46.359
523	29.452	57.296	40.339
524	17.388	44.630	47.432
525	5.100	41.717	45.620
526	84.092	18.175	45.560
528	96.481	8.211	47.407
530	59.017	3.623	45.155
531	31.454	84.324	45.356
532	99.340	80.115	45.390
533	34.490	63.584	45.584
534	101.850	62.147	43.255
535	33.516	21.857	47.100
536	20.572	62.931	44.053
537	107.447	39.853	45.627
539	30.776	39.060	43.409
540	85.563	23.522	46.062
541	53.038	18.809	45.326
543	110.085	10.216	43.308
544	69.123	6.959	46.168
545	13.983	1.425	44.365
546	56.540	52.034	46.077
547	36.722	40.882	45.654
550	107.811	32.914	45.835
551	52.999	33.200	42.470
552	5.928	21.021	44.953
553	20.601	16.033	45.340
555	106.807	3.070	44.621
556	49.481	85.624	43.875
557	73.776	76.862	45.059
558	29.385	78.738	45.355
559	77.488	26.158	45.810
560	87.717	72.475	45.526
561	62.972	66.006	44.391
562	14.826	64.924	44.144
563	77.309	53.761	44.792
564	37.161	46.561	45.850
565	27.055	42.749	40.685
566	9.955	40.357	43.905
569	40.229	31.714	46.958
570	34.599	69.837	43.530
571	95.664	53.761	37.659
572	109.793	49.367	38.996
573	67.429	41.575	43.400
574	4.511	26.686	37.637
575	4.077	12.671	37.461
576	64.749	12.654	33.450
577	82.421	13.626	39.111
578	53.426	9.691	38.060
580	28.772	77.140	38.076
581	109.380	72.772	36.050
582	79.713	59.175	37.888
583	43.095	32.706	38.247
584	33.090	57.124	36.087
585	2.545	47.442	37.747
586	98.232	40.211	38.079
587	29.816	35.757	36.192
588	83.404	33.972	38.129
589	84.594	24.458	34.878
590	5.863	20.121	35.478
591	52.758	20.720	38.544
592	75.767	12.332	38.620
593	60.590	10.871	39.532
594	24.501	48.597	38.362
595	24.429	10.301	39.090
596	37.720	35.772	42.093
597	64.945	49.300	39.140
598	9.725	18.390	40.055
599	82.990	4.554	39.614
600	92.483	80.024	39.960
601	101.300	82.464	39.609
602	64.873	81.453	40.054
603	88.927	69.085	40.386
604	22.961	65.925	39.113
605	55.474	61.421	38.026
606	91.697	38.456	38.084
607	7.682	41.918	37.363
608	64.163	26.843	39.050
609	32.591	17.520	40.341
610	30.758	8.230	39.092
611	8.263	6.238	39.296
612	60.012	4.382	38.638
613	18.506	86.213	39.782
614	30.149	84.649	38.892
615	63.477	63.427	38.499
616	35.701	61.536	39.463
617	56.137	52.534	39.050
618	47.486	18.328	38.539
619	14.755	17.543	38.837
620	25.384	4.718	36.633
621	57.049	84.874	37.442
622	77.646	80.934	37.419
623	14.949	69.220	36.754
624	64.747	68.662	35.447
625	106.376	67.327	35.455
626	26.631	59.205	35.445
627	92.458	58.524	37.514
628	7.298	53.287	37.799
629	89.389	44.048	36.926
630	33.931	40.639	34.868
631	45.383	81.770	36.525
632	47.760	36.541	37.672
633	27.241	71.917	37.969
634	99.793	69.808	37.856
635	27.140	66.447	31.350
636	92.533	65.169	35.626
637	5.986	63.540	33.431
638	97.723	63.548	36.182
639	74.305	58.335	34.393
640	100.305	57.304	37.177
641	60.244	50.978	35.504
642	27.306	78.614	33.087
644	36.537	8.623	37.400
645	107.835	10.095	37.108
647	23.202	81.505	40.190
648	12.179	79.124	37.856
649	2.073	74.903	33.673
650	44.923	74.719	38.824
652	47.562	61.231	36.235
653	70.145	60.640	37.514
654	19.651	52.825	37.906
655	93.298	8.357	38.956
656	58.092	46.687	39.017
657	77.504	37.355	32.084
658	38.761	34.383	32.453
659	64.358	32.633	37.992
660	70.671	30.436	35.403
661	102.844	29.079	37.423
662	83.087	20.335	38.535
663	61.695	17.322	37.461
664	43.022	16.392	36.391
665	70.738	15.228	37.341
666	66.707	39.526	33.904
667	52.399	7.145	23.964
668	106.634	22.153	38.972
669	12.404	35.953	39.119
670	5.787	78.289	36.445
671	103.167	77.162	39.602
672	59.558	72.005	41.432
673	22.145	73.235	42.423
674	72.289	71.920	41.538
675	84.275	68.101	37.659
676	1.559	65.878	40.335
677	8.998	64.021	41.210
678	26.455	61.649	40.572
679	106.155	80.586	43.963
680	3.543	60.416	41.018
681	36.631	42.710	39.628
682	35.964	29.159	41.688
683	82.743	27.237	40.578
684	53.485	15.197	40.525
685	42.807	86.041	41.014
686	91.925	74.424	39.981
687	19.689	74.012	36.456
688	69.801	65.085	40.367
689	80.106	64.474	40.619
690	71.362	49.670	42.532
691	42.476	59.405	40.571
692	62.017	87.087	43.376
694	86.260	39.978	42.032
695	48.494	15.678	43.981
696	12.574	84.785	41.579
697	35.758	83.303	41.337
698	84.715	73.546	41.130
699	79.085	76.340	39.879
700	33.320	76.308	40.097
701	78.887	69.165	41.485
702	106.153	53.236	40.963
703	30.348	2.485	41.105
704	36.930	55.655	40.523
705	21.554	38.616	41.866
706	6.688	32.414	41.130
707	99.579	24.445	39.560
708	53.272	25.155	42.532
709	99.022	16.673	42.387
710	40.088	18.204	40.159
711	65.001	14.059	41.587
712	18.926	8.193	42.715
713	69.460	0.977	42.223
714	52.087	44.044	43.271
715	25.285	27.377	39.940
716	33.998	51.391	40.953
717	97.863	47.499	40.101
718	75.640	44.031	39.454
719	61.331	41.823	40.789
720	56.043	39.317	35.698
721	80.319	39.705	41.060
722	65.620	37.067	39.691
723	78.280	30.359	41.739
724	42.328	25.772	39.883
725	60.495	23.772	40.326
726	20.579	16.487	38.663
727	61.695	53.537	41.515
728	109.165	2.516	39.406
729	39.097	79.902	39.062
730	54.266	74.820	40.694
731	53.418	68.864	39.441
732	17.591	62.685	39.616
733	78.265	52.178	38.469
734	48.226	47.686	39.221
735	92.266	48.686	40.897
736	105.087	38.744	39.013
737	72.276	37.969	40.443
739	42.088	50.819	39.541
740	43.238	65.723	38.825
741	81.494	85.846	38.513
742	84.928	48.642	39.875
743	42.488	39.037	37.812
744	69.606	37.052	45.547
745	110.121	34.062	40.025
746	26.347	18.300	40.939
748	36.476	11.874	43.313
749	47.565	1.948	36.575
750	20.202	2.236	41.002
752	69.788	54.155	39.955
753	19.074	45.486	40.805
754	109.506	44.951	42.358
755	109.573	26.532	42.279
756	18.355	30.164	41.614
757	92.756	20.180	39.558
758	46.266	10.463	41.267
759	78.503	7.411	37.393
760	51.877	2.947	41.115
761	5.757	83.876	39.804
762	13.195	51.250	38.325
763	77.271	7.888	25.550
764	42.791	44.950	37.216
765	47.011	1.945	25.555
766	78.121	19.053	7.474
767	26.732	15.837	9.325
768	92.557	10.462	6.522
769	33.190	7.006	8.253
771	30.599	72.073	7.878
772	24.989	69.633	10.685
773	51.269	60.852	8.334
774	80.042	58.722	9.153
775	75.374	50.492	7.553
776	37.163	49.859	10.569
777	109.136	37.720	8.208
778	74.418	30.322	9.440
779	70.372	12.096	3.393
780	8.895	11.267	8.872
782	93.144	80.766	8.744
783	46.786	75.121	8.223
784	66.736	69.471	8.168
785	11.585	18.287	9.022
787	38.205	35.241	9.819
788	89.811	34.886	9.458
789	21.045	50.540	10.552
790	90.423	46.827	11.369
791	5.374	47.727	8.588
792	101.203	30.406	9.615
793	107.295	26.465	9.011
794	12.962	25.609	11.153
795	36.585	23.069	9.354
796	26.979	21.210	10.037
797	4.173	18.594	10.356
798	106.339	64.940	10.442
799	51.143	11.377	9.423
800	95.829	85.956	9.145
801	75.603	73.757	9.072
802	19.989	66.192	7.910
803	74.122	60.247	8.430
804	65.207	57.035	8.535
805	47.580	46.993	8.080
806	90.377	42.989	4.114
807	75.337	43.140	7.429
808	28.571	38.346	9.190
809	72.958	11.068	11.491
810	20.410	59.155	8.584
811	39.966	56.840	8.391
812	93.867	39.631	8.005
813	59.947	27.305	8.699
814	74.192	23.792	8.298
815	103.087	18.420	5.923
816	78.290	6.730	7.435
817	68.356	79.613	7.613
818	87.957	77.643	5.474
819	105.704	77.179	3.534
820	14.902	69.763	7.171
821	80.325	67.938	8.578
822	68.395	31.141	8.686
823	61.339	65.096	6.987
824	14.768	51.711	6.621
825	54.408	48.840	6.428
826	48.243	40.186	3.106
827	1.360	42.405	7.939
828	71.778	39.243	5.597
829	46.096	32.904	6.930
830	34.186	32.745	7.013
831	18.130	31.170	7.060
832	37.470	28.109	6.175
833	35.656	65.527	6.577
834	7.863	51.734	10.791
835	79.494	34.138	8.026
836	15.989	37.680	9.974
837	9.239	37.873	8.466
838	52.623	36.956	8.293
839	104.831	32.860	4.111
840	92.699	28.214	10.468
841	52.074	26.615	6.482
842	6.501	24.843	9.988
843	16.420	20.243	10.035
844	42.939	17.239	9.592
845	71.839	15.490	8.393
846	73.039	34.208	3.247
847	95.699	6.025	7.471
848	59.303	85.902	10.110
849	35.846	74.351	8.525
850	72.132	67.455	8.746
851	4.438	59.852	8.246
852	105.791	61.061	3.111
853	9.838	57.734	8.794
854	49.868	55.242	7.960
855	15.732	46.712	7.847
858	70.362	54.164	12.495
859	42.348	63.320	10.896
860	48.392	74.868	9.094
861	35.005	56.659	10.583
862	58.476	55.305	11.573
863	100.988	54.807	13.034
864	15.253	48.884	14.307
865	49.962	41.943	9.052
866	22.345	28.800	12.042
867	70.672	7.122	8.897
868	57.100	3.895	11.656
870	92.193	60.414	12.132
871	33.458	80.021	11.224
872	28.107	52.994	10.633
873	106.914	50.554	11.628
874	82.657	45.168	12.233
875	74.295	46.582	11.808
876	6.855	42.111	11.799
877	35.699	41.577	13.036
878	28.393	31.075	8.931
879	51.330	31.861	10.089
880	46.854	25.939	12.516
881	77.232	63.648	11.436
882	56.324	27.277	12.102
883	66.685	62.227	11.591
884	29.919	63.018	12.484
885	95.074	54.607	12.370
886	50.769	54.704	13.250
887	101.828	48.254	12.895
888	108.939	31.035	12.576
889	41.426	24.785	12.957
890	95.119	23.239	13.063
891	65.753	24.145	13.656
892	70.710	22.133	12.960
893	57.546	20.489	13.031
894	58.926	62.902	11.826
895	78.761	15.588	12.576
896	98.695	9.122	15.583
897	73.004	3.917	15.480
898	89.807	84.356	12.917
899	71.259	86.561	11.391
900	75.082	81.103	12.542
901	66.357	79.741	13.690
902	54.370	74.087	13.804
903	97.444	67.599	11.513
904	91.168	66.091	12.160
905	46.500	9.242	12.157
906	31.741	26.709	8.748
907	109.359	15.323	10.789
908	14.936	3.075	12.695
909	63.803	30.124	11.564
910	49.198	20.285	10.082
911	93.943	16.225	8.986
912	13.851	9.140	11.196
913	38.714	4.868	10.086
914	107.296	3.753	12.302
915	84.529	1.937	8.746
916	10.657	66.111	9.376
917	84.949	59.146	13.041
918	66.499	40.808	9.820
919	31.657	46.110	10.006
920	23.471	44.098	11.123
921	62.544	44.850	9.528
922	60.573	37.074	8.628
923	81.695	21.578	11.569
924	88.169	7.894	9.837
925	20.744	8.623	8.887
926	24.111	3.301	10.535
927	49.913	80.866	6.906
928	14.490	81.505	8.916
929	11.898	44.750	11.770
930	63.118	12.494	13.119
931	103.645	40.740	10.925
932	84.909	50.585	8.644
933	39.449	81.141	7.012
934	3.184	72.988	9.610
935	14.026	55.977	12.704
936	81.505	50.780	4.985
937	74.801	37.769	11.199
938	31.461	24.245	15.378
939	35.529	11.455	11.154
940	50.951	4.668	9.086
941	65.340	6.034	11.110
942	55.484	44.002	10.931
943	30.329	2.348	9.549
944	56.845	78.991	12.822
945	107.722	80.998	11.259
946	102.763	79.330	12.366
947	17.718	74.394	10.275
948	69.009	75.013	11.892
949	40.881	71.357	10.595
950	20.233	72.659	6.000
951	10.148	73.681	9.084
952	44.489	58.098	10.343
953	22.513	80.596	11.474
954	34.405	18.401	6.451
955	17.753	14.467	8.668
956	78.023	13.304	7.102
957	77.467	56.929	4.284
958	44.182	56.363	3.156
959	50.936	44.918	3.626
960	105.305	40.123	6.277
962	15.003	25.003	4.356
963	53.667	21.003	4.008
964	19.933	19.297	2.402
965	98.419	14.222	5.025
966	16.803	56.984	3.557
972	92.070	72.647	1.891
973	24.378	69.635	3.747
978	94.936	50.053	2.415
979	5.307	62.322	2.795
981	44.586	21.631	6.393
983	83.272	10.270	5.864
985	98.759	83.884	5.826
986	54.971	78.210	3.948
987	5.708	75.215	4.256
990	31.745	59.114	4.798
991	70.219	58.505	3.457
992	10.585	43.663	6.444
993	24.665	19.111	4.930
994	42.713	12.089	3.790
995	73.679	6.820	3.672
996	15.415	85.822	3.880
998	9.414	70.056	3.126
999	20.235	61.176	3.783
1000	98.931	61.935	5.031
1001	7.322	53.945	5.298
1006	42.972	74.390	3.470
1007	67.773	72.580	2.891
1010	105.339	50.359	3.594
1012	96.197	44.074	3.968
1013	61.759	42.728	3.028
1014	65.930	78.172	3.725
1017	1.739	35.185	4.549
1018	8.405	26.855	2.662
1022	66.392	6.906	3.236
1023	63.375	3.872	22.366
1025	6.234	39.867	3.123
1026	30.163	41.602	4.079
1027	24.867	77.528	2.579
1028	51.196	1.449	3.874
1029	27.237	33.419	3.357
1031	65.233	30.739	3.971
1032	28.478	25.259	3.190
1033	2.343	22.542	2.604
1034	58.521	13.914	4.046
1035	34.896	2.405	2.974
1039	80.168	81.984	2.854
1043	92.214	35.128	3.990
1044	84.132	35.183	4.112
1045	21.905	28.307	2.624
1046	49.055	24.576	2.818
1047	41.259	19.473	2.853
1049	37.298	70.780	3.666
1050	4.139	64.774	11.440
1051	84.270	23.745	4.429
1054	31.069	52.268	5.949
1055	68.917	53.291	5.902
1056	60.790	49.500	5.293
1057	81.825	43.609	6.011
1058	40.651	46.087	5.654
1059	40.756	38.654	6.380
1060	34.165	38.269	8.319
1061	100.261	36.057	8.062
1062	23.099	54.775	6.086
1063	21.706	35.685	6.905
1065	20.944	24.520	7.424
1066	99.999	24.614	10.547
1067	59.750	21.642	6.167
1068	44.645	4.840	5.642
1070	21.515	84.115	6.555
1071	18.691	78.325	6.805
1073	56.460	32.624	6.882
1074	57.004	69.337	4.486
1075	42.375	67.910	7.051
1076	100.754	68.940	6.588
1077	46.645	10.614	6.592
1078	60.201	8.001	8.462
1079	27.767	77.585	7.753
1080	81.581	73.304	6.979
1081	89.107	68.355	6.166
1082	50.975	70.000	6.684
1083	85.722	63.057	7.941
1084	26.123	62.375	5.951
1085	57.530	54.284	5.145
1086	94.385	65.492	7.047
1087	1.323	54.221	5.205
1088	25.063	48.916	5.460
1089	43.464	26.974	7.141
1090	69.762	21.141	6.488
1091	8.442	19.952	4.345
1092	65.462	13.446	7.208
1093	49.830	17.405	5.950
1094	14.140	7.045	6.412
1095	17.637	1.362	3.969
1096	16.297	74.197	2.935
1097	100.193	52.197	6.705
1098	102.552	27.076	4.674
1100	88.490	56.022	5.104
1101	70.610	46.094	3.446
1102	85.844	40.265	7.458
1103	7.634	31.643	6.530
1104	27.740	10.977	5.847
1105	10.675	2.017	5.809
1106	91.158	3.209	4.407
1107	34.363	81.629	5.335
1108	61.336	77.400	7.015
1109	13.920	78.543	4.159
1110	11.149	61.824	4.112
1111	98.847	73.920	6.091
1112	75.628	66.053	4.037
1114	39.760	62.676	3.593
1115	64.906	61.338	4.044
1116	58.965	60.264	6.172
1117	100.595	58.000	7.484
1118	88.505	50.569	4.502
1119	102.612	44.261	5.135
1120	34.865	45.542	5.830
1122	54.019	64.925	4.805
1123	1.520	66.966	4.783
1124	106.965	70.333	4.947
1125	22.011	43.475	5.897
1128	65.179	24.497	5.557
1129	89.034	24.815	6.027
1130	107.841	20.951	5.724
1131	96.465	21.247	5.447
1133	22.307	12.554	5.143
1134	47.674	66.083	5.378
1135	37.421	12.800	5.075
1136	3.980	7.713	5.410
1137	54.831	7.169	4.010
1139	103.963	4.490	6.068
1140	24.080	3.525	3.935
1142	76.665	86.107	7.045
1144	74.795	78.837	5.457
1145	106.517	10.019	6.894
1146	55.043	69.128	13.098
1148	62.160	71.384	12.744
1149	85.939	6.837	21.530
1150	35.832	74.811	20.674
1151	53.564	69.031	19.043
1152	22.538	66.242	21.849
1153	87.477	60.952	17.542
1154	66.643	55.592	21.878
1155	63.907	49.158	20.054
1156	97.131	42.925	17.335
1157	72.142	40.476	17.294
1158	84.127	31.462	21.460
1159	14.402	21.118	20.750
1160	6.946	22.792	20.494
1161	58.269	22.507	20.947
1162	75.808	21.562	19.202
1163	33.238	18.334	20.942
1164	27.392	19.583	22.033
1165	72.232	7.418	21.691
1166	26.440	2.034	21.016
1167	82.273	82.153	19.513
1168	36.088	7.071	21.336
1169	95.248	10.927	21.922
1170	70.239	30.983	21.022
1171	43.806	39.470	21.741
1172	28.259	80.967	20.434
1173	107.099	72.314	20.009
1174	17.694	68.942	22.147
1175	86.254	68.020	18.051
1176	72.671	58.490	20.317
1177	7.569	48.325	25.169
1178	45.915	47.921	20.986
1179	24.884	35.222	21.115
1181	92.787	75.331	20.008
1182	39.035	11.885	22.589
1184	11.111	77.431	20.708
1185	101.631	69.526	21.974
1186	32.322	57.900	21.848
1187	20.425	49.996	21.528
1188	103.128	46.508	22.584
1189	92.322	45.223	20.551
1190	21.391	40.534	22.215
1191	79.152	40.219	21.687
1192	17.463	3.248	22.485
1193	75.603	73.767	21.874
1194	29.386	74.271	18.883
1195	66.688	61.553	19.194
1197	109.934	27.489	18.504
1198	65.053	20.328	19.659
1199	78.426	8.329	19.821
1201	30.703	67.009	18.516
1202	95.792	67.863	17.705
1203	3.262	65.728	19.014
1204	107.781	61.813	19.866
1205	79.333	32.733	18.736
1206	24.187	55.375	20.416
1207	87.590	42.779	24.955
1208	97.818	35.658	20.879
1209	89.846	34.104	19.529
1210	7.313	30.155	19.416
1211	28.285	30.032	21.555
1212	42.048	28.796	20.664
1213	94.440	28.187	19.974
1214	25.064	25.061	20.041
1215	21.401	20.370	19.335
1216	104.825	44.427	17.844
1217	77.023	83.260	23.639
1218	19.389	32.364	20.568
1219	37.631	37.104	19.721
1220	8.693	55.053	21.427
1221	35.860	51.739	20.243
1222	84.636	37.493	20.395
1223	9.855	36.097	20.455
1224	12.474	29.203	17.436
1225	103.401	28.599	20.469
1226	75.515	28.342	20.594
1227	69.828	23.378	20.137
1228	92.177	20.863	20.701
1229	52.385	36.526	19.726
1230	51.306	17.885	18.310
1231	45.989	12.503	19.577
1232	26.832	10.066	18.712
1233	21.333	3.184	16.310
1234	105.347	83.724	19.992
1235	14.969	81.676	20.082
1236	6.927	71.549	19.393
1237	39.760	60.560	20.415
1238	1.346	52.401	19.351
1239	3.505	38.906	24.420
1240	101.057	15.569	21.941
1241	54.868	82.896	23.004
1242	33.829	84.410	23.119
1243	15.926	10.774	24.760
1244	33.309	42.151	23.297
1245	50.416	37.490	24.442
1246	13.723	31.810	24.447
1247	2.776	31.285	22.822
1248	100.092	24.018	24.430
1249	35.207	24.889	24.930
1250	23.873	11.774	23.047
1251	97.236	0.975	27.230
1252	46.992	85.111	22.807
1253	41.411	52.300	19.548
1254	68.852	70.417	25.516
1255	85.971	59.109	23.625
1256	80.171	57.725	24.909
1257	90.110	57.766	21.185
1258	46.464	54.300	22.747
1259	14.345	52.110	23.619
1260	24.993	45.571	24.265
1261	2.649	44.285	20.118
1262	15.878	36.884	22.148
1264	89.065	65.581	22.595
1265	22.040	28.280	24.340
1266	6.875	62.001	21.752
1267	98.610	75.611	26.961
1268	33.752	69.158	13.553
1269	86.035	70.065	24.106
1270	58.692	64.817	23.904
1271	67.266	65.038	23.604
1272	94.914	51.668	24.652
1274	41.905	48.571	24.631
1275	86.105	13.742	26.496
1276	42.593	7.656	24.802
1277	81.235	77.136	21.965
1278	4.613	7.197	24.580
1279	101.599	64.056	24.667
1280	58.173	39.320	22.827
1281	102.708	32.143	25.067
1282	45.396	33.455	24.022
1283	10.260	15.238	19.869
1284	63.740	13.771	22.682
1285	3.319	85.818	23.292
1286	8.879	82.834	23.979
1287	5.229	76.374	24.018
1288	25.120	77.050	24.605
1289	2.012	20.544	17.692
1290	16.200	26.678	21.950
1291	45.138	19.542	20.633
1292	106.639	79.707	22.968
1294	48.066	78.013	22.559
1295	62.423	77.856	21.923
1296	40.671	72.762	24.859
1298	99.431	63.520	17.961
1299	81.900	64.169	21.869
1300	58.984	60.236	20.735
1302	50.857	59.785	20.978
1303	67.360	41.872	21.370
1304	106.802	40.017	21.354
1305	101.343	39.764	23.051
1306	64.090	32.800	22.259
1307	34.592	30.435	22.203
1308	57.876	30.857	22.674
1309	9.462	27.487	23.272
1310	83.222	26.780	22.884
1311	30.961	13.371	22.093
1312	13.388	44.046	22.724
1313	86.264	22.027	19.093
1314	94.068	5.413	23.403
1315	53.245	44.947	21.910
1316	83.098	16.997	18.902
1317	19.342	16.736	23.091
1318	109.048	18.047	20.286
1319	57.223	16.286	21.812
1321	59.903	10.736	18.097
1322	47.102	8.013	17.426
1323	21.852	6.212	23.431
1324	57.795	3.940	24.549
1325	73.750	41.229	22.470
1326	9.328	2.165	21.548
1327	17.724	77.886	23.733
1328	71.511	76.448	25.041
1329	13.155	72.327	23.072
1330	60.224	71.386	20.440