ITEM: TIMESTEP
23.950496710461962
ITEM: NUMBER OF ATOMS
1497
ITEM: BOX BOUNDS
1.0317460317460316 110.39682539682539
1.0317460317460316 87.28571428571428
2.5 48.0
ITEM: ATOMS id x y z
1	91.047	38.385	32.868
2	71.260	34.173	32.484
3	92.249	31.599	31.440
4	76.777	27.881	33.970
5	54.340	22.859	29.648
6	40.638	13.756	29.973
7	58.508	14.119	34.375
8	46.732	87.183	35.474
9	20.881	80.288	35.550
10	67.823	81.926	32.608
11	88.487	78.257	31.699
12	99.619	75.233	34.658
13	57.980	58.484	31.298
14	24.984	53.856	30.956
16	3.637	38.296	31.224
17	72.476	40.075	31.023
18	107.773	37.456	32.347
20	79.666	36.739	36.599
21	47.791	40.833	33.508
22	3.420	44.112	28.930
23	88.443	55.712	33.416
24	23.303	70.640	32.300
25	52.205	58.660	31.374
26	85.349	57.623	39.750
27	13.630	49.544	31.490
28	62.326	45.689	32.759
29	107.653	41.994	35.846
30	73.709	30.953	29.894
31	10.325	25.865	36.893
32	20.663	13.299	33.268
33	49.528	17.091	35.025
34	12.140	4.335	34.010
37	103.556	83.575	32.112
38	32.324	82.265	33.650
39	38.458	81.601	35.082
41	37.506	61.891	32.666
42	42.127	56.449	32.731
43	67.347	57.417	32.876
44	28.292	4.006	34.443
45	96.162	14.591	32.578
46	83.940	4.823	30.396
47	62.791	77.885	31.037
48	72.148	84.693	30.117
50	30.207	76.017	31.595
51	81.910	73.913	29.542
52	34.321	72.627	33.577
53	65.966	69.806	29.686
54	98.296	69.590	28.054
55	2.048	62.398	30.135
56	27.792	59.008	29.208
57	2.083	13.362	29.929
58	21.569	58.281	30.142
59	56.218	44.572	32.240
60	44.743	35.401	30.524
61	47.410	30.441	32.669
63	87.614	19.355	29.544
64	38.268	22.769	30.658
65	13.569	17.958	32.384
66	66.455	17.637	26.127
67	4.991	83.548	29.246
68	76.154	50.401	30.569
69	56.506	79.358	32.974
70	85.759	35.585	33.509
71	69.357	44.376	27.915
72	11.097	73.453	33.875
73	109.335	73.854	29.974
74	43.768	62.211	30.171
75	98.005	29.752	30.551
76	79.322	21.687	32.498
77	53.702	15.532	32.056
78	14.736	12.545	29.665
79	34.530	10.804	30.219
80	53.119	9.220	29.285
81	40.535	39.072	32.037
82	80.012	10.279	32.309
83	103.673	7.944	33.379
84	94.749	4.484	30.032
85	60.472	4.943	26.995
87	87.755	77.740	26.033
88	103.323	73.326	28.935
89	105.823	67.464	30.717
90	69.088	63.728	33.184
91	18.911	52.477	27.600
92	72.423	10.218	31.966
93	76.902	5.926	30.495
94	25.753	9.654	34.551
95	83.403	14.176	32.564
96	49.180	26.717	38.797
97	91.899	23.552	34.570
98	72.377	21.451	34.157
99	68.902	22.551	38.079
100	97.120	20.468	34.123
101	77.691	15.690	36.023
102	38.415	13.675	34.690
103	12.629	13.424	34.979
104	98.302	7.507	36.952
105	108.287	31.121	35.099
106	16.839	7.738	35.633
108	8.889	84.417	33.938
109	77.713	74.205	35.011
110	60.692	72.311	33.631
111	16.807	74.486	30.341
112	36.296	67.035	35.525
113	18.984	57.663	35.386
114	96.009	54.505	28.819
115	88.054	49.078	33.214
116	67.749	7.231	36.863
117	28.310	44.052	34.358
118	81.892	31.599	33.052
119	96.801	36.363	34.970
120	93.002	45.002	31.578
121	9.059	34.878	35.117
122	58.425	30.107	35.917
123	88.362	30.582	35.907
124	28.590	24.089	37.500
125	34.529	23.658	40.040
126	14.106	12.102	40.250
127	45.386	5.247	34.787
129	50.527	34.378	36.615
131	85.158	77.862	36.134
132	66.906	74.861	34.564
133	39.265	72.537	37.746
134	93.335	72.426	32.720
135	6.736	71.264	36.151
136	30.691	63.547	34.464
137	12.653	61.767	34.665
138	48.855	55.387	36.032
139	51.058	46.011	34.660
140	64.133	86.305	35.906
141	38.706	84.169	29.331
142	61.205	33.769	30.994
143	87.860	16.598	38.493
144	49.634	10.445	35.254
145	5.563	6.791	34.876
147	94.820	78.122	33.969
148	87.835	73.300	33.593
149	52.468	72.830	31.470
150	79.464	66.363	34.954
151	42.435	66.125	35.699
152	16.603	66.088	31.575
153	24.608	28.766	35.002
154	54.358	64.708	32.252
155	41.781	50.817	32.432
156	37.538	46.286	32.634
157	33.035	22.831	33.119
158	65.533	29.119	32.650
159	43.186	25.601	36.473
161	16.201	22.936	34.601
162	101.835	18.385	34.511
163	23.910	20.193	35.133
164	91.096	49.939	28.374
165	17.404	32.773	34.198
166	33.168	30.715	33.717
167	100.774	42.984	32.101
168	102.158	12.814	37.383
169	89.922	14.757	32.992
170	86.441	7.900	35.906
172	104.307	62.022	34.413
173	34.271	51.174	34.054
174	105.007	47.763	34.060
175	71.220	48.966	35.447
176	19.377	44.354	33.462
177	22.697	37.885	32.459
178	19.727	26.123	37.158
179	84.193	83.997	33.779
180	74.071	67.400	36.178
183	87.909	62.926	34.513
184	4.739	57.218	33.121
185	104.131	56.169	35.597
186	8.976	50.875	33.914
187	73.872	45.619	32.095
188	29.323	16.305	35.543
189	81.007	42.431	35.577
191	43.365	73.437	30.100
193	57.235	83.947	28.053
194	101.393	78.959	28.228
196	57.350	44.626	24.180
197	98.107	47.681	25.958
198	62.952	44.140	27.479
199	45.331	43.567	24.322
200	64.999	35.964	26.958
201	13.126	21.342	28.456
202	55.519	15.599	25.713
203	32.029	15.749	28.466
204	102.770	8.666	27.466
205	10.458	7.120	26.540
206	87.947	83.503	26.229
207	107.688	65.404	26.278
208	12.779	59.272	22.421
209	52.212	55.080	25.971
210	31.874	46.689	22.879
211	31.523	3.487	27.317
212	69.599	6.014	29.672
213	33.066	10.183	24.907
214	95.359	9.796	26.089
215	52.731	33.886	30.174
216	94.025	17.598	23.478
218	51.163	77.648	29.496
219	14.972	79.353	31.473
220	94.189	81.586	26.543
221	74.907	77.616	27.659
222	13.029	75.484	23.503
223	68.251	74.507	27.332
224	92.009	44.317	23.724
225	77.424	70.646	28.318
226	72.532	64.666	24.450
227	102.537	60.371	22.450
228	13.864	57.816	28.104
229	18.375	47.207	26.431
230	106.006	45.613	28.582
231	18.460	41.619	27.054
232	109.062	33.936	27.755
233	8.243	19.873	27.345
234	73.975	12.486	25.307
235	28.950	70.268	25.484
236	8.365	37.732	26.692
237	83.542	36.428	28.715
238	21.305	33.049	28.600
239	4.237	12.279	21.071
240	108.109	8.660	26.517
241	71.679	83.779	24.142
242	100.606	81.394	22.481
243	89.015	83.996	20.424
244	44.135	80.864	30.020
245	27.138	65.100	24.573
246	44.263	59.668	23.739
247	69.801	52.160	26.165
248	83.961	12.528	25.079
250	70.561	35.912	25.736
251	28.500	26.089	22.488
252	51.848	27.345	31.342
253	72.475	19.417	26.185
254	80.242	18.384	26.087
255	87.684	20.521	23.065
256	98.848	14.470	25.645
257	49.103	15.668	27.346
258	68.572	10.720	24.493
259	37.010	43.514	21.486
260	76.636	34.869	25.375
262	40.734	26.558	23.565
263	82.012	28.148	28.462
264	93.486	23.283	27.509
265	67.157	23.758	23.852
266	42.901	20.640	26.617
267	26.943	18.002	27.302
268	19.757	85.563	24.972
269	106.279	83.725	26.903
270	62.759	82.926	22.780
271	47.801	71.714	22.933
272	49.731	21.620	24.965
273	20.884	72.220	26.960
274	1.206	65.332	22.240
275	48.268	65.022	23.446
276	67.266	61.121	27.624
277	25.542	50.680	24.616
278	75.175	50.694	21.518
279	87.339	36.751	23.882
280	38.163	36.071	25.290
281	50.531	32.954	24.802
282	60.570	26.403	25.425
283	6.678	66.666	27.478
284	76.594	41.708	27.486
285	79.672	47.822	27.509
286	57.328	52.220	24.026
287	92.826	32.093	25.500
288	17.211	26.708	30.014
289	104.040	25.460	31.026
290	22.272	23.546	29.373
291	47.280	10.067	30.504
292	32.720	79.282	28.003
293	53.060	68.011	25.319
294	34.905	62.741	27.325
295	86.545	52.169	28.635
296	96.388	34.620	28.211
297	83.354	42.621	27.922
298	41.417	29.002	31.485
299	87.194	29.972	30.583
300	88.164	24.760	28.489
301	47.105	24.057	30.866
302	100.505	19.926	28.839
303	105.227	18.594	25.087
304	61.032	18.427	26.625
305	76.505	16.990	30.031
306	22.497	14.747	28.027
307	64.020	31.158	25.329
308	7.673	14.526	27.779
309	15.620	35.280	29.501
310	30.407	41.153	30.156
311	93.990	72.586	23.572
312	90.356	71.895	28.771
313	11.341	67.949	33.794
314	40.344	61.769	26.081
315	2.784	55.869	27.008
316	65.243	50.926	32.522
317	13.256	41.941	31.569
318	61.477	40.656	31.136
319	59.161	22.688	32.861
320	96.643	40.192	29.474
321	73.894	25.814	27.896
322	7.298	2.577	27.852
324	81.701	86.420	28.556
325	55.689	75.059	26.131
326	60.063	65.842	29.637
327	11.738	62.576	29.546
328	32.706	57.179	30.891
329	60.380	50.234	28.031
330	41.146	44.567	29.060
331	67.144	21.289	30.371
332	79.608	80.684	30.903
333	64.195	12.832	29.550
335	79.667	54.166	29.116
336	8.284	55.540	29.453
337	9.945	45.765	28.802
338	27.806	37.150	26.370
339	7.083	25.968	28.080
340	31.556	22.845	26.856
341	108.744	23.609	28.205
342	40.274	7.089	30.883
343	12.406	1.208	27.076
344	107.302	58.065	25.533
346	25.568	82.870	25.567
348	38.692	67.446	27.453
349	97.117	63.784	28.086
350	21.519	61.787	24.378
352	61.625	56.242	27.534
353	39.791	55.166	28.136
354	102.641	52.229	28.688
356	17.979	7.543	28.228
357	75.297	58.419	26.461
358	16.213	62.600	25.847
359	23.529	77.669	30.798
360	34.088	71.918	20.172
361	22.013	63.264	30.629
362	83.896	60.006	29.653
363	46.881	55.656	28.315
364	49.878	45.647	28.636
365	25.113	43.341	28.466
366	109.868	41.067	28.871
367	32.650	32.565	28.149
368	100.847	58.928	30.296
369	101.306	35.910	31.987
370	88.721	29.187	22.488
371	33.866	27.061	29.448
372	18.752	18.693	26.713
373	60.593	12.320	25.811
374	25.389	5.968	27.821
375	89.016	3.994	25.917
377	88.027	1.082	33.628
378	48.192	68.332	30.223
379	8.620	31.381	26.038
380	98.507	48.693	32.341
381	29.223	48.994	36.800
384	81.169	81.001	45.140
385	65.043	73.712	45.014
386	10.814	69.835	44.391
387	85.798	65.952	46.271
388	87.209	61.501	44.212
389	54.078	58.249	43.357
391	88.894	51.583	42.100
392	27.017	53.132	45.051
394	95.987	44.317	43.961
395	56.617	45.621	46.440
396	42.965	41.667	42.804
397	56.327	40.786	42.274
398	44.710	24.579	44.031
399	65.646	21.659	42.064
400	60.371	19.043	44.614
401	77.434	12.020	45.869
402	54.258	9.376	45.418
403	28.798	27.497	44.149
405	29.995	45.837	44.994
406	60.435	79.535	37.359
410	82.456	45.600	46.027
411	93.462	32.067	40.646
412	12.622	17.376	44.503
413	87.950	17.027	44.500
414	71.261	17.986	41.399
415	101.247	10.621	45.104
416	30.214	13.620	44.575
417	109.148	75.104	43.489
418	39.392	66.855	43.922
419	56.233	65.541	42.096
422	46.284	50.887	44.377
423	21.115	54.646	43.107
424	16.527	50.442	45.312
425	24.390	48.381	44.405
426	82.908	8.802	43.543
427	64.481	9.107	45.932
428	73.474	7.645	40.072
429	46.647	79.607	43.937
430	15.860	70.786	42.621
431	98.660	72.086	43.694
432	60.379	60.371	40.728
433	11.432	57.109	44.131
434	94.368	37.890	46.661
435	48.951	36.750	44.524
436	15.530	36.566	44.551
437	24.309	32.798	42.843
438	65.722	29.690	45.525
439	55.171	80.878	41.575
440	86.258	31.174	42.897
441	8.949	26.759	44.351
442	97.274	5.636	43.448
443	88.271	6.276	45.746
444	47.490	4.922	41.134
445	39.774	2.027	40.677
446	71.055	82.424	40.903
447	8.445	76.243	42.001
448	70.660	75.806	40.424
449	77.275	59.858	39.944
450	56.028	27.095	42.813
452	26.663	3.359	43.828
453	78.230	23.625	38.620
454	18.741	77.282	42.603
455	39.384	73.339	43.966
456	48.816	72.250	41.872
457	67.729	68.393	41.693
458	20.035	67.447	43.545
459	106.063	69.815	43.335
460	48.491	65.850	45.435
461	96.836	64.736	43.665
462	35.473	59.509	44.637
463	9.021	14.315	42.870
464	97.395	54.602	43.003
465	104.428	47.219	40.898
466	10.550	46.540	40.276
467	43.663	34.662	44.454
468	101.797	31.991	41.993
469	49.886	29.186	46.468
471	73.680	27.713	41.186
473	22.156	22.049	43.412
474	7.679	50.226	43.469
475	23.143	78.321	46.060
476	66.369	83.137	44.378
477	104.000	85.907	45.344
479	61.739	37.349	45.008
488	89.356	24.786	40.082
493	24.451	86.694	43.492
494	5.441	72.091	45.492
495	28.335	63.838	45.955
497	81.710	51.975	44.008
498	101.401	23.021	46.553
499	99.803	49.376	44.742
500	67.218	57.658	43.403
501	47.939	56.897	44.468
504	91.636	56.282	41.785
513	35.801	4.002	47.490
514	43.423	5.141	45.026
516	19.447	84.574	45.917
517	85.563	78.641	46.938
518	56.483	76.360	45.298
521	29.126	69.448	46.636
522	41.946	18.587	46.055
523	29.898	57.606	41.690
524	15.610	46.010	46.633
525	3.722	40.987	44.531
526	83.062	19.551	45.659
528	93.554	9.370	46.849
530	60.325	3.979	46.703
531	29.115	84.415	44.924
532	98.345	82.121	41.932
533	34.331	65.010	45.642
534	102.832	65.202	42.032
535	36.337	23.619	45.926
536	20.997	62.860	43.131
537	107.912	37.634	45.025
539	30.242	39.285	44.042
540	85.630	24.578	45.482
544	69.138	5.747	46.297
545	15.146	2.244	46.897
546	57.754	52.344	45.582
547	38.366	39.690	47.280
550	106.735	31.351	45.132
551	53.538	31.848	42.107
552	6.513	20.296	44.109
553	21.456	17.207	45.755
555	107.769	4.151	44.394
556	48.728	85.859	42.561
557	74.265	74.847	44.642
558	30.695	78.357	44.424
559	76.643	25.343	46.496
561	63.059	65.380	44.817
562	15.053	65.137	44.663
563	77.295	54.877	42.114
564	36.458	48.719	47.267
565	26.908	43.677	39.755
566	8.999	40.276	42.379
569	39.979	30.581	47.255
570	33.619	71.289	43.380
571	96.119	54.094	37.636
573	65.811	41.158	44.032
574	3.457	27.875	37.953
575	6.326	13.846	33.863
576	64.169	12.376	34.709
577	82.443	16.066	40.530
578	53.552	7.546	36.154
580	29.003	74.469	40.534
581	109.423	73.427	36.022
582	80.937	56.428	36.078
583	44.049	31.782	39.409
584	32.447	56.691	36.540
585	3.537	48.307	34.794
586	96.817	42.571	38.443
587	28.655	35.570	38.711
588	82.849	33.823	39.052
589	85.669	25.759	35.096
590	4.347	19.653	34.105
591	54.154	19.820	37.995
592	75.095	13.042	41.177
593	60.558	12.200	41.011
594	24.487	48.800	39.313
595	26.342	10.391	40.294
596	35.438	35.193	41.592
597	66.023	47.718	37.923
598	5.546	17.501	39.546
599	84.312	4.750	40.694
600	92.678	82.339	40.121
601	101.894	83.968	37.967
603	91.130	68.663	41.454
604	23.936	65.041	36.272
605	54.122	62.589	37.846
606	90.494	40.222	40.479
607	8.264	41.501	36.658
608	62.828	25.437	38.164
609	31.989	17.332	41.062
610	30.988	8.020	38.634
611	11.014	8.293	38.584
612	59.379	6.836	39.843
613	18.860	85.000	39.514
614	29.747	84.580	39.405
615	63.092	62.057	36.226
616	36.095	61.678	39.336
617	55.400	54.011	40.154
618	45.416	19.332	38.726
619	12.415	19.789	37.755
620	22.403	6.016	38.095
621	56.609	84.046	35.980
622	77.895	80.895	36.964
623	17.797	69.592	37.048
624	67.429	68.208	35.495
626	24.143	57.888	36.276
627	92.805	59.336	35.678
628	7.293	55.085	39.896
629	88.848	43.824	35.019
630	34.179	41.979	34.299
631	46.445	82.278	36.389
632	48.159	40.256	38.915
633	28.981	69.878	36.493
634	98.282	71.409	38.576
635	26.570	66.509	31.637
636	93.823	67.188	35.003
637	6.885	63.930	33.492
638	98.419	64.236	35.172
639	76.936	59.581	33.183
641	60.567	51.258	37.150
642	28.589	78.119	36.435
644	39.319	8.882	38.160
645	108.377	9.694	36.384
647	23.649	81.941	40.494
648	11.368	79.001	37.098
650	44.078	75.545	37.495
652	46.357	60.585	35.427
653	69.388	59.490	37.408
654	19.640	52.460	36.105
655	90.351	9.348	40.586
656	57.243	46.480	39.696
657	77.424	37.787	31.565
658	37.074	33.232	30.534
659	64.361	32.301	41.554
660	70.963	27.385	35.389
661	102.321	32.620	36.263
662	81.986	20.183	36.945
663	63.967	17.736	35.105
664	43.736	15.547	34.518
665	68.891	13.635	36.591
666	66.544	38.594	33.990
667	50.630	8.067	23.410
668	104.004	24.775	37.500
669	13.486	38.091	38.364
670	6.880	78.302	33.337
671	103.954	75.894	40.890
672	60.035	74.604	41.811
673	23.732	72.511	44.731
674	74.284	68.717	41.927
675	87.298	67.894	36.626
676	3.255	67.730	40.160
677	9.359	65.293	42.417
678	28.268	63.637	40.443
679	104.378	80.373	43.787
680	4.807	61.472	40.334
681	34.689	41.202	39.788
682	35.598	28.894	45.035
683	82.554	26.931	39.860
684	54.794	13.994	39.456
685	43.095	85.592	42.075
686	94.082	74.972	38.959
687	22.098	73.161	37.390
688	71.512	63.635	41.883
689	82.858	63.477	38.140
690	72.187	50.014	41.422
691	42.736	60.795	39.134
692	60.817	84.831	40.871
694	84.207	39.370	41.873
695	48.916	16.741	43.704
696	12.772	83.834	40.856
697	34.452	83.735	42.401
698	85.261	73.930	40.587
699	78.230	76.345	41.004
700	33.721	75.739	38.426
701	81.565	69.799	43.592
702	106.669	54.012	41.833
704	38.364	55.141	41.574
705	20.098	39.675	39.911
706	8.253	33.044	42.036
707	98.517	27.604	37.668
708	52.661	22.455	42.432
709	98.327	17.848	43.101
710	38.399	18.967	40.579
711	65.678	14.421	42.440
712	18.620	8.067	42.542
714	50.888	44.408	43.324
715	24.339	26.876	40.946
716	33.557	48.444	41.464
717	98.631	48.373	38.229
718	75.041	43.082	39.104
719	63.645	43.327	38.190
720	58.370	37.895	36.889
721	78.075	40.118	43.027
722	67.894	36.891	39.623
723	77.891	31.780	41.506
724	39.084	27.967	39.481
725	60.037	20.858	38.093
726	21.430	18.259	39.749
727	61.596	52.693	41.538
728	107.659	3.363	35.959
729	39.555	78.854	42.637
730	53.656	75.536	39.009
731	56.009	70.061	38.135
732	15.970	63.130	39.369
733	77.773	49.444	37.955
734	45.541	48.148	39.135
735	92.462	48.842	39.456
736	101.291	39.193	39.375
737	73.509	37.242	41.208
739	38.810	49.359	38.516
740	45.117	65.789	40.945
741	80.428	86.577	38.041
742	83.553	47.607	39.912
743	41.280	38.020	38.958
744	68.800	37.663	46.425
745	106.647	35.814	38.547
746	27.086	18.942	42.611
748	35.479	9.684	41.504
749	52.184	1.769	33.952
750	20.257	2.795	42.586
752	67.284	53.598	38.156
753	17.020	45.727	40.408
754	108.815	45.384	45.815
755	109.169	25.216	41.842
756	17.034	30.241	42.415
757	93.017	20.722	40.064
758	47.051	11.254	41.670
759	80.183	8.137	37.497
760	54.844	4.716	41.623
761	6.162	81.856	41.573
762	13.509	52.493	40.177
763	78.469	6.733	24.902
764	40.982	45.206	36.425
765	46.627	3.494	24.400
766	77.580	17.561	8.095
767	27.158	14.779	8.741
768	91.187	8.942	7.490
769	37.131	7.239	9.910
771	30.717	68.839	6.693
772	23.149	70.393	10.426
773	53.114	60.799	7.061
774	80.337	58.472	9.131
775	73.680	50.299	6.470
776	39.485	47.740	7.885
777	108.923	38.130	8.348
778	74.730	29.643	9.034
779	71.678	11.072	4.811
780	7.864	9.764	7.984
784	66.909	69.691	10.510
785	11.209	17.520	10.172
787	40.934	33.797	10.362
788	88.643	33.756	9.051
789	22.415	50.261	10.757
790	87.907	46.678	8.977
791	5.225	46.945	7.538
792	102.422	31.780	8.336
793	106.519	25.811	10.722
794	12.300	25.405	12.494
795	38.079	22.545	10.396
796	27.451	22.338	9.188
797	2.434	17.379	8.434
798	106.140	63.905	9.273
799	52.727	11.201	9.940
801	75.544	77.598	10.106
802	17.700	64.214	9.124
803	72.816	58.351	8.989
804	63.726	55.896	8.325
805	48.011	48.504	6.699
806	90.235	42.853	4.458
807	73.875	43.131	9.587
808	27.854	36.480	7.862
809	73.133	11.320	12.062
810	21.870	58.808	9.354
811	37.439	59.342	9.495
812	92.800	41.738	9.381
814	77.215	25.570	11.011
815	102.377	18.627	7.989
816	77.466	5.400	9.429
817	70.516	80.957	9.148
819	104.112	75.945	4.970
820	14.241	69.655	5.780
821	78.825	69.002	7.694
822	67.001	32.676	10.179
823	62.921	69.044	6.937
824	16.953	52.181	5.777
825	54.138	50.676	6.208
827	3.493	38.899	4.653
828	69.754	37.859	8.335
829	46.836	34.617	8.380
830	33.526	32.019	7.175
831	18.558	31.965	6.706
832	37.975	28.103	8.150
833	34.189	64.626	5.106
834	11.478	51.235	9.265
835	81.390	36.376	8.714
836	16.032	37.716	10.311
837	8.954	35.837	7.252
838	54.247	40.135	4.909
839	107.251	32.076	6.129
840	96.180	30.035	8.512
841	52.147	29.077	5.559
842	6.807	22.461	7.925
843	17.038	18.835	10.358
844	44.920	16.532	5.836
845	71.392	17.646	10.624
846	72.018	33.440	5.064
847	95.613	6.470	5.104
848	57.872	87.358	9.718
849	33.640	74.174	9.048
850	72.708	69.413	7.913
851	4.148	59.290	6.808
852	103.915	61.861	4.266
853	10.306	57.871	7.524
854	47.405	55.159	6.870
855	16.743	46.153	7.414
858	67.152	53.208	11.424
859	43.511	64.282	9.695
861	31.647	56.244	12.565
862	57.957	56.284	10.888
863	100.790	56.090	15.033
864	16.697	50.839	13.003
865	48.800	41.650	9.569
866	20.176	29.970	12.041
867	71.373	6.062	10.289
868	57.505	6.082	11.837
870	92.607	60.006	11.982
871	34.311	80.424	8.756
872	27.418	54.375	11.050
873	106.703	50.020	13.936
874	87.310	43.768	15.198
875	75.875	48.286	11.786
876	5.105	42.841	10.818
877	36.501	42.007	11.576
878	28.024	30.557	8.616
879	51.646	35.423	10.413
880	49.304	28.288	11.697
881	75.257	64.295	10.174
882	55.253	28.972	11.993
883	66.030	63.085	10.229
884	32.006	63.825	11.420
885	95.590	53.355	10.003
886	52.699	55.575	9.238
887	102.705	45.971	12.695
888	107.390	31.787	12.350
889	44.436	25.805	13.867
890	94.559	25.907	13.015
891	65.627	24.510	12.990
892	71.338	24.159	10.410
893	59.130	21.126	10.536
894	57.211	65.556	11.547
895	80.560	15.910	14.106
896	99.113	9.289	15.759
897	72.803	1.655	16.577
898	90.119	83.683	13.296
900	77.682	81.762	13.615
901	65.198	81.859	11.412
902	55.806	76.364	14.036
903	95.812	64.304	12.622
904	89.300	64.388	12.734
905	46.366	10.496	11.794
906	31.937	26.455	7.539
908	12.302	1.518	13.090
909	61.959	29.838	13.208
910	48.582	22.706	10.363
911	91.096	15.626	7.501
912	17.818	11.794	12.682
913	39.541	2.912	12.474
914	107.572	5.488	12.778
915	82.104	3.469	9.568
916	11.374	65.218	8.331
917	84.183	62.069	10.932
918	65.324	41.560	9.679
919	30.703	44.954	9.099
920	25.786	42.611	9.990
921	63.677	46.670	10.062
922	59.120	36.569	11.365
923	82.746	20.875	7.414
924	87.501	6.420	10.354
925	20.170	9.332	8.238
926	24.211	5.228	8.979
927	48.113	82.254	6.180
928	13.675	82.109	9.029
929	11.785	44.636	11.439
930	65.178	12.403	14.897
931	102.640	39.964	11.036
932	83.199	51.132	10.508
933	40.387	82.200	5.343
934	2.182	70.760	7.112
935	15.490	57.533	10.999
936	79.805	49.252	6.033
937	75.630	37.420	9.412
938	33.296	24.159	15.198
939	35.981	12.509	10.272
940	49.574	5.933	8.996
941	64.879	5.573	14.375
942	56.824	42.937	11.009
943	31.837	2.525	9.643
944	58.500	79.345	10.571
945	105.539	79.768	11.577
946	100.539	77.808	9.980
947	18.254	73.282	9.048
948	69.485	74.388	10.246
949	40.761	72.849	9.505
950	19.901	71.097	3.998
951	12.553	73.101	10.962
952	44.054	58.107	10.032
953	22.239	79.137	8.508
954	34.688	19.226	7.660
955	15.410	14.219	6.812
956	78.628	12.527	8.309
957	75.589	57.649	3.521
958	42.600	56.066	2.850
959	52.433	45.112	2.497
960	105.294	39.450	3.983
962	15.864	24.118	5.342
963	53.149	23.469	3.644
964	21.319	21.046	4.630
965	98.090	13.683	2.974
966	16.736	58.275	5.454
973	24.949	70.603	5.117
981	47.522	21.155	3.694
982	2.935	12.484	4.625
983	82.191	7.951	4.594
985	99.865	84.268	7.309
986	55.693	78.355	4.545
987	7.641	73.877	5.328
990	32.221	59.200	4.203
992	9.629	44.155	4.531
993	26.842	18.017	3.868
995	75.322	7.503	4.124
996	14.388	85.036	3.456
999	20.560	60.771	2.591
1000	99.111	62.013	7.948
1001	6.443	52.361	5.564
1007	66.975	73.933	4.956
1010	104.514	52.934	5.049
1012	97.051	44.295	2.614
1013	64.051	43.729	4.618
1017	2.651	33.420	2.693
1023	63.708	4.185	22.871
1026	27.318	40.501	2.666
1029	23.854	32.692	3.931
1032	28.534	24.043	3.500
1033	3.739	21.094	3.107
1034	59.311	12.096	2.654
1035	34.874	1.692	4.038
1042	77.568	40.545	4.752
1043	91.529	35.073	2.540
1044	85.034	35.790	4.055
1045	22.695	27.375	3.772
1050	5.871	65.201	10.361
1051	84.126	24.439	3.995
1054	30.421	53.142	4.604
1055	69.529	54.669	5.308
1056	60.588	49.496	6.234
1057	80.522	44.259	7.718
1059	38.921	39.589	4.944
1060	34.191	37.560	6.990
1061	97.203	37.474	8.559
1062	25.141	56.142	4.633
1063	21.052	37.919	5.320
1065	21.917	24.244	8.878
1066	100.671	23.998	9.000
1067	58.535	24.759	5.969
1068	46.270	4.204	5.425
1070	19.195	83.971	6.928
1071	16.722	77.927	7.126
1073	57.437	34.880	5.483
1074	57.546	72.733	2.658
1075	45.707	68.319	6.751
1076	99.557	69.475	8.557
1077	48.072	11.969	6.828
1078	64.054	8.795	8.969
1079	27.689	76.507	7.869
1080	83.149	71.501	5.603
1081	89.568	69.492	5.520
1082	49.949	70.965	9.157
1083	83.294	62.409	5.613
1084	24.609	64.307	5.797
1085	58.002	57.326	5.426
1086	93.362	63.442	6.543
1088	26.622	48.673	5.634
1089	43.323	28.321	8.127
1090	67.355	20.739	6.744
1091	9.435	19.205	3.909
1092	67.549	13.520	8.899
1093	51.656	17.811	7.560
1094	13.085	6.889	8.517
1095	20.305	1.546	4.249
1097	98.504	50.862	6.093
1098	103.988	26.825	4.048
1100	88.206	58.554	5.966
1101	70.869	45.908	5.127
1102	86.299	40.703	7.709
1103	6.765	30.254	5.803
1104	28.994	9.894	5.867
1105	9.951	3.692	4.074
1106	91.106	4.467	2.421
1107	34.996	80.431	4.011
1108	60.425	75.938	5.674
1109	12.345	79.326	3.803
1110	9.923	62.739	2.982
1111	96.778	73.725	5.996
1112	75.010	67.726	3.399
1114	39.317	61.272	4.262
1115	62.699	61.229	3.393
1116	59.118	61.182	9.309
1117	102.265	57.430	8.654
1118	87.158	52.721	5.116
1119	102.705	44.668	2.448
1120	34.048	43.149	4.579
1122	55.299	66.173	5.863
1123	1.511	67.337	3.695
1124	105.658	70.209	5.524
1125	22.083	43.089	4.600
1128	67.869	26.749	4.881
1129	92.013	26.565	6.121
1130	107.874	20.280	6.546
1131	96.691	20.402	7.243
1133	20.618	13.638	4.304
1134	50.573	66.084	7.579
1135	39.516	12.388	5.240
1136	3.758	6.949	6.163
1137	57.052	7.385	5.286
1139	103.021	6.620	7.496
1140	25.955	3.063	4.016
1144	78.886	81.011	3.664
1145	107.088	13.639	7.035
1146	53.890	70.129	13.656
1148	59.848	71.821	12.497
1149	88.191	9.250	21.969
1150	33.887	76.812	22.908
1151	55.244	70.972	19.481
1152	23.902	67.428	20.002
1153	87.489	60.457	16.602
1154	64.625	55.428	22.434
1155	63.398	48.611	21.892
1156	98.872	43.985	17.158
1157	69.827	41.732	18.652
1158	82.260	31.271	23.099
1159	14.843	18.240	20.670
1160	6.895	21.695	21.705
1161	57.931	21.170	20.720
1162	77.260	21.489	21.108
1163	35.657	18.668	19.319
1164	29.041	19.386	19.831
1165	72.946	7.789	19.488
1166	28.105	2.750	20.802
1167	81.558	84.732	21.068
1168	37.683	10.350	20.855
1169	95.653	11.491	19.782
1170	69.339	30.431	22.729
1171	41.899	39.824	21.180
1172	25.401	82.224	18.629
1173	107.299	72.683	18.935
1174	16.080	70.464	20.668
1175	85.784	68.527	17.570
1176	73.218	60.853	19.412
1177	6.930	50.021	25.378
1178	46.914	47.220	18.946
1179	24.297	36.504	18.572
1181	94.618	74.751	18.016
1182	39.764	15.090	24.020
1184	9.085	77.259	20.367
1185	103.941	69.290	21.991
1186	33.710	56.398	23.035
1187	18.725	47.665	21.155
1188	103.916	47.108	23.480
1189	92.874	45.919	18.522
1190	19.121	41.325	20.886
1191	79.574	39.622	22.609
1192	19.827	3.118	21.965
1193	76.086	73.471	21.422
1194	28.777	73.464	19.329
1195	67.611	64.623	19.133
1198	63.893	21.233	18.598
1199	82.546	10.538	19.665
1201	31.190	66.718	17.877
1202	95.528	67.709	19.012
1203	6.500	64.998	16.850
1204	107.214	63.028	21.140
1205	80.099	33.794	18.652
1206	21.545	56.095	23.397
1207	86.287	42.326	23.430
1208	97.497	35.060	19.918
1209	90.035	35.003	18.895
1210	6.829	31.359	16.135
1211	29.251	30.232	18.253
1212	45.521	28.637	20.749
1213	93.113	29.960	19.404
1214	25.079	23.637	19.422
1215	19.187	18.900	16.924
1216	106.382	44.793	17.579
1217	78.223	81.972	25.608
1218	20.298	31.837	21.062
1219	34.019	36.219	20.828
1220	7.435	55.750	21.784
1221	36.814	51.089	21.231
1222	84.274	39.054	19.771
1223	8.856	36.887	19.578
1224	13.410	28.933	17.918
1225	100.527	28.479	19.384
1226	75.408	27.597	21.265
1227	71.586	23.394	19.252
1228	94.129	23.180	19.676
1229	52.440	38.003	21.261
1230	51.947	18.590	20.575
1231	48.038	13.043	19.170
1232	28.418	9.568	18.645
1233	20.540	3.212	15.441
1234	103.896	82.960	17.515
1235	15.353	82.209	21.937
1236	6.304	71.489	20.072
1237	38.642	59.806	19.916
1239	2.954	40.090	24.959
1240	102.806	13.665	22.139
1241	54.734	81.516	22.343
1242	31.376	84.312	23.300
1243	18.696	10.786	24.088
1244	31.890	41.694	20.645
1245	49.837	39.621	26.935
1246	13.550	31.652	23.040
1247	1.574	31.709	25.279
1248	99.506	24.325	23.521
1249	33.643	23.124	22.343
1250	24.656	13.153	21.158
1252	46.956	84.351	24.020
1253	42.987	51.921	14.157
1254	72.051	69.831	25.118
1255	87.272	59.923	22.700
1256	79.972	57.249	23.435
1257	91.486	57.381	19.504
1258	45.734	52.549	22.261
1259	12.439	48.823	23.884
1260	26.053	44.531	21.517
1261	5.627	43.377	20.043
1262	15.176	37.429	22.149
1265	23.437	28.370	24.398
1266	6.698	62.151	23.140
1267	98.096	74.654	26.114
1268	35.567	68.584	12.340
1269	87.900	73.023	22.759
1270	59.871	66.315	23.758
1271	66.122	68.910	23.247
1272	96.372	52.568	21.120
1274	41.484	50.171	25.120
1275	89.393	11.079	28.461
1276	43.542	9.500	25.903
1277	81.776	76.039	20.082
1278	4.417	8.377	25.350
1279	101.736	64.839	25.465
1280	58.415	38.805	25.900
1281	103.392	33.007	24.407
1282	43.964	34.458	23.007
1283	9.892	14.126	22.770
1284	64.663	14.935	22.092
1286	9.366	82.817	23.582
1287	5.346	77.098	25.091
1288	26.570	77.508	24.521
1289	2.820	20.932	17.537
1290	16.785	26.065	22.017
1291	44.732	17.865	20.024
1292	106.467	80.056	21.514
1294	47.409	79.306	23.333
1295	59.838	78.309	24.004
1296	42.013	74.160	23.977
1298	101.098	66.574	17.504
1299	81.048	63.696	23.486
1300	59.138	60.684	21.952
1302	51.410	60.796	21.142
1303	63.466	40.444	22.505
1304	107.302	38.869	22.565
1305	99.975	39.367	25.048
1306	62.699	34.159	21.084
1307	35.252	30.053	21.122
1308	55.666	31.558	24.241
1309	9.533	27.632	22.721
1310	81.275	24.506	24.556
1311	31.669	14.434	20.894
1312	13.884	42.928	24.956
1313	86.669	23.660	18.924
1314	93.530	5.915	19.982
1315	51.596	45.360	22.314
1316	82.839	17.092	20.582
1317	21.044	16.907	22.770
1318	108.197	16.620	19.471
1319	58.317	14.371	21.015
1321	59.055	8.156	18.898
1322	47.943	6.209	18.283
1323	23.177	7.418	21.423
1324	56.584	4.954	23.051
1325	74.545	43.911	23.354
1326	10.765	3.011	21.400
1327	20.129	77.911	21.812
1328	69.341	79.148	23.472
1329	9.458	71.081	24.599
1331	10.454	66.736	21.318
1332	95.636	58.793	24.345
1333	81.724	55.662	16.978
1334	90.444	52.476	23.315
1335	84.193	48.732	22.959
1337	70.482	17.489	19.096
1338	38.124	76.144	28.985
1339	66.789	9.658	19.561
1340	16.420	70.450	14.330
1341	19.212	59.734	15.707
1342	37.267	55.320	14.162
1344	18.149	51.895	18.338
1345	7.006	51.881	13.441
1346	32.323	49.326	16.975
1347	91.212	39.793	16.222
1348	11.132	38.808	14.454
1349	75.421	43.006	16.086
1350	53.576	37.933	15.091
1351	36.852	28.504	12.916
1352	77.353	28.447	16.441
1353	106.439	20.578	16.319
1354	88.470	19.736	12.931
1355	63.207	18.954	6.391
1356	58.314	3.203	18.245
1358	8.830	84.283	11.485
1359	78.283	73.342	11.759
1360	14.065	79.874	14.575
1361	20.637	82.621	13.048
1362	85.549	12.016	13.433
1363	40.977	31.371	16.126
1364	57.129	33.189	18.822
1365	7.709	20.131	15.034
1366	40.507	12.412	14.425
1367	102.386	15.262	14.319
1368	92.150	12.927	11.871
1369	32.198	4.681	16.133
1370	42.006	82.502	16.227
1371	82.486	79.088	16.144
1372	98.446	19.005	20.555
1373	88.274	79.451	16.626
1374	20.205	66.548	13.944
1375	69.203	58.151	13.576
1376	62.289	43.393	16.094
1377	108.440	39.046	15.131
1378	5.343	36.765	15.639
1379	27.235	33.919	12.623
1381	34.650	9.307	15.080
1382	7.909	14.637	15.458
1383	103.441	71.898	13.044
1384	8.283	74.436	14.175
1385	91.531	70.709	10.565
1386	108.621	73.307	10.062
1387	21.582	55.126	13.623
1388	59.818	50.147	12.482
1389	98.707	43.463	8.333
1390	41.501	41.140	12.983
1391	44.921	35.244	14.285
1392	61.773	34.792	15.531
1393	34.358	37.115	14.229
1394	80.406	29.735	6.829
1395	26.094	27.711	13.389
1396	10.220	58.869	15.574
1397	22.696	22.965	13.955
1398	2.200	12.505	13.295
1399	78.024	7.840	16.546