ITEM: TIMESTEP
49.462668107863045
ITEM: NUMBER OF ATOMS
1497
ITEM: BOX BOUNDS
1.0317460317460316 110.39682539682539
1.0317460317460316 87.28571428571428
2.5 48.0
ITEM: ATOMS id x y z
1	89.767	39.765	30.678
2	68.763	36.608	29.653
3	95.098	30.382	30.202
4	75.095	26.731	32.740
5	52.207	19.006	32.830
6	40.283	14.796	28.912
7	59.090	14.787	34.161
9	20.127	80.166	35.703
10	69.475	83.987	32.336
11	90.674	77.924	29.419
12	97.969	76.375	34.243
13	59.562	60.547	32.936
14	26.339	54.682	31.630
16	2.482	38.228	31.368
17	71.782	38.894	24.207
18	109.982	35.793	33.124
20	77.776	36.038	36.556
21	48.740	39.742	30.144
23	88.840	54.334	34.594
24	26.150	72.329	31.998
25	52.849	59.327	30.931
26	83.202	58.712	38.196
27	13.720	46.526	32.089
28	60.677	46.026	31.666
29	108.038	42.219	36.089
30	72.631	32.759	29.014
31	10.619	28.266	35.838
32	20.120	14.865	33.181
33	45.829	18.236	33.741
34	10.449	2.325	34.292
37	104.315	80.719	30.137
38	33.442	84.486	33.158
39	42.114	81.844	33.859
41	37.218	59.132	31.826
42	41.457	53.191	35.749
43	65.335	58.245	32.159
44	26.482	5.498	31.953
45	95.521	15.426	32.540
46	81.895	5.364	28.130
47	61.796	76.660	31.517
48	74.760	82.634	31.663
50	32.013	74.152	28.747
52	34.932	72.859	33.444
53	64.881	68.919	28.176
54	94.951	70.042	27.279
56	29.533	60.361	24.679
58	18.910	56.337	30.147
59	55.393	45.489	28.329
60	41.540	34.949	28.030
61	47.461	28.870	31.745
63	90.297	19.655	31.370
64	39.287	23.949	30.589
65	13.345	16.318	31.114
66	64.990	18.620	24.957
67	7.172	81.841	28.025
68	73.738	50.902	30.488
69	56.311	77.013	31.898
70	84.495	36.234	32.260
71	68.184	42.536	28.159
72	13.129	75.535	30.827
73	108.987	72.822	31.421
74	45.273	60.133	30.222
75	101.524	29.494	28.120
76	79.115	22.271	34.683
77	52.434	11.860	33.635
78	11.305	11.561	27.773
79	29.813	8.027	28.624
80	53.967	9.715	27.936
81	42.491	40.056	30.844
82	79.203	9.583	30.948
83	100.533	8.323	32.526
84	94.447	3.265	27.601
85	62.506	4.229	27.438
87	85.985	76.428	25.505
88	105.766	70.073	26.588
89	100.467	66.747	28.548
90	68.559	63.879	31.738
91	15.685	51.770	29.054
92	73.109	11.937	33.170
93	75.623	4.938	28.557
94	25.835	11.359	34.191
95	79.360	13.853	34.663
96	46.925	25.131	38.529
97	90.301	25.690	32.538
98	71.200	21.535	35.206
99	65.871	24.145	37.656
100	96.535	20.815	35.446
101	75.608	17.460	38.558
102	34.706	14.880	35.599
103	14.155	10.906	34.979
104	96.422	5.928	39.082
105	106.371	30.584	32.595
106	15.537	5.527	36.481
108	13.541	82.847	32.497
109	79.169	75.053	36.513
110	62.284	70.721	32.954
111	18.567	74.250	31.878
112	36.441	66.507	33.349
113	15.516	55.103	35.595
115	87.525	47.434	34.010
116	66.955	7.697	36.099
117	26.190	44.630	35.523
118	80.154	32.211	30.920
119	94.902	35.211	34.037
120	92.279	45.484	32.608
121	11.095	36.323	33.679
122	56.406	28.115	34.872
123	87.104	31.046	36.395
124	28.306	27.057	37.229
125	34.413	25.281	39.851
126	15.116	15.456	41.087
127	44.244	5.188	33.877
129	48.526	33.902	36.487
131	86.321	77.737	37.162
132	68.539	73.292	33.084
133	40.263	72.605	34.912
134	93.557	73.901	31.624
135	6.695	72.598	33.803
136	31.385	60.611	32.579
137	10.004	63.225	30.699
138	51.053	52.988	32.831
139	49.982	45.555	30.791
140	63.771	85.914	35.956
141	38.118	83.729	30.374
142	57.614	31.499	30.403
143	86.849	19.608	34.937
144	48.479	9.532	36.621
145	4.228	6.272	35.847
147	95.967	82.422	32.578
148	85.530	72.799	34.561
149	49.504	72.922	31.598
150	79.665	63.357	32.639
151	42.037	64.823	32.249
152	19.422	66.739	30.320
153	24.778	29.684	31.375
154	54.334	64.922	30.692
155	39.911	49.076	32.230
156	35.464	45.577	30.377
157	33.533	22.272	33.855
158	63.132	29.610	30.587
159	42.208	27.168	36.330
161	13.702	24.976	31.276
162	103.284	19.851	33.984
163	24.379	21.885	32.985
164	87.866	44.717	27.577
166	32.404	34.100	33.431
167	100.371	39.824	29.908
168	98.748	12.458	39.504
169	91.189	9.413	33.604
170	84.604	7.402	32.989
172	103.432	62.249	32.530
173	33.792	48.740	36.981
175	72.049	45.873	37.044
176	20.116	46.768	34.639
177	27.647	39.089	31.521
178	18.757	29.802	36.627
179	89.011	82.774	34.056
180	74.058	64.496	36.972
184	4.846	58.162	34.345
185	100.262	56.273	34.045
186	8.849	48.155	34.085
187	73.433	44.919	29.154
188	30.186	17.677	34.625
189	79.947	43.944	32.387
191	42.924	75.378	28.911
193	58.505	82.470	25.908
194	99.289	79.354	28.391
196	58.094	46.030	20.386
197	99.208	43.848	25.454
198	62.080	43.253	26.515
199	43.275	45.283	21.387
200	63.656	36.218	25.329
201	13.129	21.110	27.303
202	56.676	14.563	27.931
203	30.101	14.967	27.842
205	12.002	5.117	28.549
206	87.548	82.886	27.371
207	105.185	63.356	26.003
208	13.842	61.245	21.336
209	53.153	54.943	25.794
210	34.888	46.631	23.000
211	30.740	4.218	23.956
212	69.501	8.262	28.579
213	36.310	11.129	26.101
214	94.830	9.226	28.342
215	51.608	35.606	27.025
216	93.180	18.441	24.483
218	49.522	77.390	27.131
219	16.627	81.559	27.561
221	76.865	77.461	28.502
222	15.382	76.226	25.258
223	69.399	75.110	27.402
224	93.371	45.075	24.453
225	78.516	68.449	26.439
226	71.568	64.495	27.012
227	101.695	60.157	20.865
228	12.079	57.562	28.107
229	21.709	48.055	26.363
230	105.549	45.461	28.648
231	17.110	41.014	27.809
232	106.049	35.000	28.439
233	8.081	23.624	27.601
234	74.598	11.774	25.151
235	31.749	70.889	24.225
236	5.839	42.022	26.739
237	80.256	36.166	27.032
238	21.663	35.802	29.686
239	4.604	12.792	24.361
240	107.727	6.899	24.769
241	73.497	84.546	25.050
242	104.478	78.213	22.503
243	86.775	82.871	16.396
244	44.756	81.510	28.983
245	24.990	67.154	26.969
246	45.322	58.275	22.994
247	69.136	51.438	24.196
248	90.044	14.013	24.617
250	69.425	34.941	20.699
251	32.852	27.359	25.842
252	52.009	24.647	32.059
253	70.173	19.344	27.567
254	82.407	16.526	28.204
255	87.087	19.578	23.418
256	99.125	15.583	27.890
257	45.406	15.327	27.090
258	68.654	8.799	23.146
259	36.349	43.862	17.229
260	75.234	30.654	23.551
262	40.404	24.369	23.533
263	79.327	26.846	27.890
264	93.501	26.010	27.351
265	67.068	25.231	25.969
266	47.283	19.959	25.507
267	28.254	22.411	27.768
268	20.511	86.636	25.715
269	106.731	84.073	23.722
270	66.687	81.605	21.120
271	49.061	71.588	25.380
272	53.002	19.208	27.395
273	20.862	71.096	27.260
275	49.779	66.524	20.529
276	66.435	58.682	25.974
277	28.288	49.225	25.714
278	74.176	51.379	21.602
279	85.788	35.347	24.472
280	38.720	39.399	24.654
281	50.123	31.178	23.416
282	57.837	23.666	26.562
283	9.699	70.288	28.967
284	76.753	40.346	27.850
285	77.847	48.973	24.687
286	56.246	51.377	23.060
287	93.734	31.597	24.380
288	16.223	30.059	28.774
289	101.728	26.901	33.016
290	22.725	24.092	28.078
291	46.367	10.228	30.279
292	33.429	80.855	27.457
293	53.812	68.349	25.061
294	37.335	61.703	27.045
295	84.019	50.962	29.375
296	98.147	36.267	27.016
297	81.374	43.103	25.099
298	41.767	28.985	28.312
299	85.633	31.481	28.507
300	83.487	24.728	30.005
301	44.168	23.049	29.389
302	98.479	21.683	30.589
303	105.357	17.688	27.481
304	59.859	17.887	24.857
305	75.642	15.881	28.897
306	22.594	16.618	27.011
307	61.798	27.550	23.150
308	6.944	16.161	29.861
309	15.139	35.360	28.041
310	30.728	39.989	26.317
312	89.006	70.881	29.477
313	13.250	69.603	33.033
314	41.183	62.316	23.323
316	66.605	50.187	31.652
317	17.160	41.324	33.515
318	59.470	37.453	28.978
319	59.081	19.740	33.002
320	94.913	41.264	29.634
321	72.317	26.081	26.940
322	5.496	1.594	29.580
325	56.314	75.568	26.537
326	59.836	63.667	28.722
327	5.739	58.268	28.035
328	33.742	54.060	29.210
329	57.618	50.559	27.904
330	44.336	45.557	28.045
331	63.291	24.621	32.532
332	83.407	78.974	31.560
333	66.766	12.259	27.936
335	77.960	54.764	29.539
336	8.866	52.951	29.532
337	10.088	43.056	31.923
338	27.141	35.576	26.377
339	6.547	27.001	32.182
340	34.178	20.202	25.490
341	106.319	23.302	29.569
342	39.289	6.201	29.902
344	107.661	57.692	26.340
346	26.609	84.592	25.371
348	40.848	68.157	24.935
349	93.160	63.491	27.423
350	18.689	61.178	24.954
352	61.564	56.142	27.434
353	41.498	56.067	29.369
354	97.608	51.388	27.823
356	17.441	6.807	26.421
357	71.954	56.275	25.653
358	15.356	66.442	26.655
359	23.841	78.628	32.508
360	36.110	70.049	21.500
361	22.141	62.175	28.534
362	80.294	59.095	27.996
363	46.459	54.615	27.034
364	49.830	46.998	23.718
365	24.382	43.677	29.994
366	109.791	40.568	29.910
367	33.350	34.247	26.087
368	101.299	57.520	28.628
369	100.164	39.396	36.337
370	90.074	27.393	21.082
371	33.125	26.646	31.862
372	18.181	20.211	30.455
373	62.135	9.606	26.201
374	22.561	8.899	28.457
375	85.149	5.095	23.590
378	45.883	66.627	25.706
379	8.756	33.337	26.979
380	98.024	46.436	34.191
381	29.245	49.921	33.842
385	67.687	75.769	46.521
386	11.346	70.857	44.616
387	88.446	64.987	44.568
388	88.134	59.903	44.197
389	53.000	55.865	43.404
391	90.838	51.137	44.521
394	91.950	44.762	41.969
395	56.931	47.984	46.361
396	44.416	42.477	44.537
397	54.335	38.334	43.701
398	44.087	23.776	46.064
399	65.481	20.397	42.240
400	60.517	16.270	44.301
401	77.232	9.998	45.710
402	51.800	9.619	44.800
403	27.416	27.835	43.677
405	30.391	45.970	46.031
406	61.694	80.414	37.167
410	78.921	46.116	42.466
411	91.396	30.839	40.935
412	12.388	20.375	41.308
413	87.466	18.897	41.971
414	71.929	18.252	44.205
415	99.658	12.462	45.633
416	29.423	14.057	44.651
417	108.997	75.131	42.845
418	43.411	66.121	43.888
419	54.437	66.352	39.793
422	45.028	49.689	42.433
423	23.770	58.384	39.714
424	16.229	52.865	43.893
426	80.353	13.472	41.891
427	64.921	10.159	46.143
428	72.505	6.647	37.172
429	46.557	81.729	46.921
430	16.974	73.375	42.897
431	101.572	70.187	44.140
432	60.093	61.294	38.924
433	14.798	60.500	44.217
434	93.012	38.287	45.624
435	49.934	38.676	46.409
436	13.752	36.993	44.356
437	25.236	34.256	40.471
439	56.184	81.564	41.120
440	86.437	32.263	45.665
441	11.148	25.804	42.996
443	87.197	5.512	44.994
445	37.770	2.620	41.972
446	71.201	81.574	38.610
447	8.660	75.603	38.598
448	68.037	75.571	38.374
449	75.147	55.615	39.942
450	55.694	26.969	42.110
452	26.256	1.530	39.450
453	75.083	24.973	38.935
454	19.501	77.875	44.202
455	39.736	71.329	40.560
456	50.896	77.947	42.135
457	68.703	68.658	45.515
458	22.343	67.591	40.946
460	47.847	62.452	44.367
461	96.886	64.529	42.554
462	34.052	59.506	43.882
463	8.787	12.030	43.535
464	98.852	54.879	41.504
465	104.425	44.116	40.469
466	11.291	45.567	39.827
467	45.480	35.322	42.478
468	98.567	29.806	40.675
469	48.122	30.233	44.611
471	74.925	29.185	42.143
473	21.902	21.424	41.650
474	7.429	50.132	44.457
475	23.546	74.778	45.548
476	66.317	84.384	45.597
477	103.439	85.403	44.630
479	60.036	37.664	43.761
488	88.048	26.086	41.156
494	4.895	72.302	43.581
495	29.916	63.018	44.668
497	81.295	52.320	43.560
498	100.638	23.190	46.953
499	101.645	48.715	44.969
500	66.965	53.680	42.237
501	44.930	56.001	43.703
504	93.398	56.318	40.791
514	40.182	8.368	44.988
517	90.266	79.827	46.047
518	60.293	75.595	41.571
521	31.031	69.449	44.139
522	40.742	15.325	43.448
523	28.496	56.513	41.740
525	2.866	40.434	44.963
528	94.899	8.703	44.474
530	59.446	2.684	46.554
531	29.030	82.837	44.777
532	99.179	81.802	39.974
533	36.482	66.917	43.919
534	102.949	64.889	37.584
535	36.272	20.050	44.914
536	19.546	62.009	42.585
537	106.525	39.185	43.070
539	29.012	41.286	43.237
540	85.327	25.060	46.089
544	69.986	6.562	45.965
546	58.837	53.994	42.988
550	107.296	33.159	45.495
551	52.269	29.509	39.381
552	4.533	19.483	43.905
553	19.995	15.112	44.255
555	108.081	3.053	43.789
556	48.602	86.817	40.250
557	73.207	75.804	45.503
558	30.332	77.506	42.402
561	64.808	64.605	42.971
562	14.650	66.663	43.205
563	73.225	49.963	41.318
565	24.403	45.092	41.650
566	8.278	38.971	42.372
569	40.373	35.382	47.450
570	34.155	72.695	41.331
571	95.042	51.704	34.951
573	65.117	40.919	41.557
574	4.704	26.573	39.917
575	7.224	13.844	34.828
576	59.978	8.287	34.565
577	86.267	13.750	36.614
578	51.642	6.041	34.576
580	27.451	72.894	39.111
582	81.880	54.325	33.581
583	45.091	30.540	39.220
584	36.008	54.462	36.661
585	3.440	50.078	33.978
586	93.741	42.127	36.583
587	29.042	38.092	38.221
588	81.479	31.853	37.216
589	84.596	26.029	36.112
591	55.172	18.817	38.603
592	74.505	12.200	41.620
593	60.179	13.220	39.589
594	27.892	49.637	40.721
595	24.397	10.139	41.616
596	38.044	33.556	41.103
597	65.914	45.061	33.463
598	7.478	18.149	38.631
599	83.410	3.731	37.941
600	91.217	82.753	39.878
601	104.315	84.666	33.971
603	88.928	69.086	39.942
604	20.924	62.614	36.814
605	54.193	61.692	35.913
606	91.630	35.983	38.784
607	7.124	40.693	36.114
608	61.889	25.854	41.008
609	33.203	17.038	40.763
610	31.472	6.106	38.641
611	11.694	8.295	39.913
612	61.986	5.306	40.239
613	20.675	84.690	40.519
615	62.919	65.455	35.547
616	35.891	59.569	38.144
617	53.160	51.060	39.453
618	45.204	20.146	41.297
619	12.270	18.793	35.944
620	21.967	9.467	37.289
621	58.077	82.816	34.658
623	16.900	68.771	37.517
624	68.835	67.951	36.034
626	25.623	59.918	34.346
627	93.830	61.138	35.243
628	9.671	59.023	38.394
629	86.962	41.865	35.700
630	34.967	40.943	35.031
631	47.698	80.270	34.478
632	46.235	41.170	38.714
633	28.409	68.296	35.333
634	98.618	73.305	40.492
635	29.574	65.060	29.836
636	91.668	68.477	33.674
637	4.933	67.680	32.553
638	97.218	67.360	35.456
639	74.255	56.070	34.544
641	57.861	50.019	33.760
642	29.124	78.308	34.876
644	35.923	8.991	34.444
645	105.256	10.615	36.334
647	25.275	79.622	39.352
650	45.575	74.936	37.571
652	48.126	59.044	37.172
653	68.324	59.663	37.606
654	20.548	53.617	35.759
655	88.737	6.835	38.299
656	57.527	44.369	39.473
657	75.642	36.497	31.458
658	37.825	31.790	33.116
659	63.160	31.705	40.554
660	66.454	31.257	35.812
661	101.061	31.042	35.896
662	81.338	19.966	43.058
663	65.488	16.874	32.465
664	43.464	13.528	34.359
665	67.755	14.570	36.967
666	64.359	36.792	34.369
667	51.641	4.534	23.471
668	102.838	26.886	39.208
669	14.641	39.831	37.544
670	6.509	78.267	32.930
671	104.231	77.115	35.967
672	58.418	70.733	37.146
673	24.608	68.346	45.878
674	74.272	67.389	42.004
675	85.579	65.885	33.953
676	2.509	69.636	39.761
677	9.035	67.576	40.675
678	27.964	63.441	38.613
679	103.470	76.000	43.299
680	5.224	62.666	38.031
681	35.827	39.590	40.541
682	33.883	26.912	46.465
683	80.214	25.231	42.886
684	51.545	14.030	40.207
685	41.347	84.752	39.967
686	91.901	76.294	37.958
687	20.329	73.947	37.966
688	74.505	61.799	43.162
689	88.134	63.363	39.486
690	67.281	47.445	43.453
691	42.094	60.853	37.189
692	60.765	85.427	42.559
694	84.814	36.764	39.440
695	46.913	13.980	46.121
696	12.953	82.969	40.055
699	78.113	73.826	43.512
700	34.371	76.768	36.036
701	81.301	67.470	39.761
702	106.464	51.740	41.562
704	38.746	54.648	42.054
705	21.639	39.938	39.435
706	6.306	33.249	41.715
707	94.469	26.230	37.931
708	50.107	22.104	44.579
709	92.910	15.126	41.620
710	38.422	20.913	36.152
711	66.301	14.103	42.180
712	16.214	9.029	41.843
714	52.619	42.408	39.382
715	21.651	29.684	41.581
716	33.463	50.862	42.776
717	100.411	48.169	39.032
718	73.460	40.855	35.693
719	59.948	40.356	35.197
720	55.399	38.224	35.837
721	74.808	41.039	43.927
722	68.020	36.435	39.013
723	79.757	30.470	44.029
724	39.563	24.465	40.834
725	60.859	21.646	38.924
726	18.310	18.559	37.062
727	62.743	51.337	38.239
729	42.098	78.250	39.973
730	54.134	76.535	38.530
731	53.436	69.663	33.620
732	13.222	64.412	37.469
733	77.788	48.112	36.965
734	46.402	46.159	34.882
735	92.358	49.196	38.946
736	97.864	38.158	40.528
737	72.118	32.820	38.866
739	38.667	47.434	40.420
740	47.750	64.822	37.841
742	86.432	51.789	39.130
743	41.277	37.655	38.498
745	105.440	34.726	40.532
746	27.938	20.037	40.344
748	32.277	9.251	42.994
750	19.645	3.678	39.324
752	69.048	51.061	36.545
753	18.357	46.752	39.905
754	109.035	46.143	44.500
756	15.990	29.844	41.418
757	91.693	21.612	37.950
758	46.525	8.314	43.034
759	78.834	7.699	38.356
760	53.923	4.846	39.722
761	7.386	82.412	39.443
762	11.989	52.524	40.356
763	78.248	7.552	24.387
764	41.266	44.023	35.455
765	45.802	1.043	24.609
766	78.477	18.808	10.042
767	28.364	16.332	8.966
768	93.602	9.827	5.449
769	36.848	7.222	10.081
771	29.727	67.699	6.012
772	23.342	70.894	10.947
773	54.048	60.090	4.941
774	84.243	56.686	9.951
775	70.865	49.101	7.058
776	42.123	47.978	7.378
777	108.990	36.741	9.639
778	74.064	27.307	4.418
779	70.788	7.960	2.710
780	10.369	9.047	9.430
784	67.001	67.823	10.744
785	10.354	16.355	11.801
787	39.416	35.350	8.439
788	88.941	33.669	5.119
789	21.237	54.767	9.943
790	88.129	43.497	4.430
791	5.039	50.526	4.152
792	104.165	29.206	8.980
793	108.244	24.978	8.369
794	16.739	26.859	13.344
795	39.652	21.745	11.535
796	27.620	22.821	10.950
797	2.879	17.789	7.463
798	106.139	62.368	7.837
799	53.519	9.920	12.200
801	74.974	77.383	6.588
802	17.249	66.770	8.423
803	71.572	56.578	10.986
804	65.725	54.368	7.927
805	47.315	49.350	6.062
807	74.751	43.885	9.888
808	23.065	36.492	9.836
809	74.722	10.444	12.405
810	20.313	59.411	7.260
811	38.231	59.545	5.316
812	94.052	36.569	7.519
814	78.805	27.122	10.867
815	100.818	14.649	8.265
816	76.452	5.383	9.152
817	70.873	80.998	7.620
819	105.546	80.873	6.623
820	16.712	70.160	4.538
821	77.454	67.249	8.572
822	65.912	30.760	11.116
823	62.484	69.939	4.865
824	18.092	52.668	4.513
825	53.694	49.309	6.890
827	4.475	39.211	4.739
828	69.663	36.921	6.758
829	45.437	37.807	6.392
830	31.168	33.814	6.733
831	15.291	31.680	6.186
832	34.558	29.777	6.920
833	39.179	65.025	5.328
834	10.355	48.580	6.733
835	82.522	36.226	7.043
836	14.575	38.058	12.575
837	8.273	40.401	8.723
838	52.725	39.918	6.111
839	108.418	31.139	4.821
840	95.664	31.016	6.994
841	49.196	29.439	7.037
842	7.165	21.775	8.935
843	15.706	18.920	12.869
844	41.683	18.644	7.417
845	73.273	18.291	8.425
846	70.788	33.029	3.357
847	97.620	6.059	8.273
849	35.129	72.301	6.788
850	71.472	67.774	6.891
851	4.567	62.295	6.828
852	101.711	60.338	4.999
853	8.643	56.032	7.110
854	49.401	55.490	4.898
855	19.939	46.423	10.458
858	67.426	53.299	13.463
859	42.919	65.119	10.070
861	32.096	56.234	12.236
862	60.829	55.956	11.903
863	99.527	53.040	14.156
864	14.858	51.645	10.627
865	48.704	42.383	8.934
866	19.272	31.296	14.170
867	69.170	6.115	9.488
868	55.580	5.570	9.482
870	95.010	54.054	11.410
871	34.365	83.966	5.608
872	27.970	55.751	9.551
873	107.316	49.299	12.386
874	89.214	41.858	13.878
875	78.679	47.575	12.119
876	4.964	46.470	10.760
877	35.931	40.941	10.794
878	26.159	31.380	7.471
879	50.184	35.404	8.467
880	49.159	27.570	15.027
881	75.456	60.339	8.103
882	54.618	29.174	14.605
883	65.998	61.383	8.341
884	31.904	61.504	9.752
885	94.175	47.074	9.439
886	53.445	56.629	10.002
887	102.063	47.272	9.220
888	106.329	30.896	14.312
889	42.816	25.788	9.469
890	92.887	23.739	14.387
891	65.405	23.739	11.416
892	71.471	23.220	10.509
893	59.658	19.608	13.656
894	56.312	69.392	9.906
895	79.547	14.921	13.713
896	99.618	10.330	18.884
897	73.110	3.771	13.621
898	91.167	83.176	12.234
900	75.523	81.369	13.590
901	64.732	82.743	9.369
902	57.202	75.073	12.612
903	97.558	65.268	11.964
904	91.771	65.865	9.958
905	44.740	12.156	9.207
906	31.897	26.275	10.494
909	63.685	27.253	16.525
910	48.415	23.169	9.525
911	95.585	15.580	10.056
912	13.738	12.013	14.314
913	38.925	3.112	12.814
914	107.797	5.790	13.814
916	11.681	65.788	7.450
917	82.140	62.428	7.488
918	64.569	39.532	7.184
919	29.810	48.364	7.902
920	26.732	43.102	9.037
921	64.990	48.910	7.651
922	55.823	35.159	13.736
923	84.518	16.659	10.704
924	89.729	8.553	12.385
925	23.501	10.396	6.643
926	27.961	3.845	8.144
928	12.210	86.888	7.772
929	13.540	45.095	11.035
930	67.766	15.454	14.841
931	102.742	39.225	12.062
932	82.895	49.566	10.157
933	40.240	83.807	8.015
935	14.526	60.433	8.740
936	78.288	48.076	5.539
937	77.363	34.205	6.755
938	35.083	26.598	15.825
939	33.739	12.477	8.594
940	48.787	5.452	8.151
941	66.396	10.962	12.209
942	54.376	43.907	10.579
944	57.542	80.690	11.431
945	108.311	83.149	13.297
946	99.442	77.571	12.231
947	19.458	75.992	9.048
948	69.334	76.612	11.940
949	42.534	72.607	7.564
951	12.602	74.067	8.672
952	47.173	60.308	9.600
953	23.941	81.509	6.444
954	34.309	20.219	7.433
955	15.399	12.958	7.755
956	82.608	12.941	6.554
957	77.959	58.575	3.808
960	105.534	36.783	2.164
962	13.889	24.394	6.345
963	54.433	23.727	6.682
964	21.650	19.938	5.985
965	96.658	15.270	2.997
973	24.668	74.758	7.110
981	45.822	22.966	3.675
983	85.173	4.937	2.384
985	100.865	85.204	3.086
986	56.647	77.372	3.338
987	7.356	75.061	6.366
990	31.391	62.295	3.692
992	7.929	44.225	3.418
995	77.077	8.848	4.024
1000	99.523	59.510	10.485
1007	69.255	76.891	2.428
1010	105.293	53.113	2.875
1012	96.873	44.138	2.422
1017	6.378	34.303	5.333
1023	63.030	3.039	21.068
1026	27.526	44.615	3.033
1029	26.360	36.258	2.822
1032	29.083	26.160	2.721
1042	77.361	41.994	5.326
1045	21.951	30.329	2.361
1050	2.027	66.541	9.560
1051	82.151	22.667	4.550
1054	30.755	55.842	4.614
1055	70.066	55.483	5.919
1056	59.917	49.508	4.977
1057	81.748	42.465	9.647
1060	31.032	39.005	8.023
1061	101.386	35.656	6.919
1062	22.965	55.403	3.944
1063	19.906	36.840	5.917
1065	19.111	23.116	9.321
1066	103.081	20.880	7.869
1067	61.689	26.611	8.477
1068	46.309	4.650	3.103
1071	16.598	82.093	8.013
1073	57.861	35.026	4.123
1075	46.186	69.230	6.452
1076	99.152	71.265	11.027
1077	49.163	12.156	6.060
1078	62.082	4.868	9.202
1079	30.606	78.937	7.981
1080	82.048	69.622	5.420
1081	92.101	70.331	5.568
1082	50.997	74.930	8.370
1083	88.518	64.984	3.420
1084	22.710	67.316	5.946
1085	58.845	55.585	6.630
1086	91.288	57.698	8.540
1088	24.281	48.674	8.062
1089	42.823	30.997	6.443
1090	66.753	21.335	6.897
1091	10.596	19.285	4.984
1092	69.690	13.877	7.844
1093	49.748	16.907	10.017
1094	17.243	7.721	12.101
1095	20.971	2.886	4.826
1097	98.488	49.735	4.970
1098	103.719	25.312	3.458
1100	87.634	59.338	2.538
1101	71.168	41.835	2.944
1102	88.146	39.410	8.189
1103	8.871	28.098	7.291
1104	28.547	10.783	3.355
1105	12.410	4.307	6.082
1106	92.527	3.834	4.482
1108	61.411	79.314	5.954
1111	97.304	75.146	5.741
1112	75.321	64.963	3.620
1115	63.195	57.326	3.083
1116	59.196	62.260	6.950
1117	104.421	53.808	9.767
1118	87.919	50.641	5.656
1120	33.141	42.954	2.953
1122	57.642	67.178	4.682
1124	106.209	68.872	6.153
1125	21.020	43.031	3.688
1128	67.838	26.687	5.333
1129	90.420	24.209	7.377
1130	110.312	21.111	4.426
1131	97.248	21.364	8.950
1134	50.144	62.906	6.424
1135	42.757	9.469	4.259
1136	4.284	7.647	6.440
1137	58.180	6.152	4.484
1139	104.576	6.952	6.396
1145	108.645	12.336	6.817
1146	49.094	71.155	12.286
1148	61.351	74.077	7.975
1149	87.590	7.490	18.552
1150	34.200	78.785	20.132
1151	54.824	68.764	16.872
1152	23.119	67.796	19.035
1153	87.669	60.455	12.024
1154	62.919	52.212	24.099
1155	64.107	46.501	19.008
1156	99.774	41.136	18.076
1157	67.788	40.468	18.457
1158	84.176	29.333	23.715
1159	15.472	17.270	24.012
1160	5.090	21.608	21.815
1161	56.006	19.771	19.985
1162	76.440	16.864	22.632
1163	36.876	16.073	18.593
1164	27.347	19.010	15.634
1165	71.557	7.388	17.986
1166	26.416	3.408	19.079
1167	82.231	81.704	21.033
1168	37.910	9.160	19.594
1169	96.141	14.969	20.852
1170	68.414	27.986	21.403
1171	43.529	38.820	18.396
1172	25.287	83.529	18.841
1173	109.428	76.186	14.773
1174	15.242	71.693	19.329
1175	83.483	65.778	18.209
1176	75.215	60.369	21.148
1177	6.104	48.078	25.907
1178	45.888	49.603	17.323
1179	24.039	38.280	20.832
1181	93.158	72.114	15.690
1182	38.814	15.827	23.753
1184	12.024	77.103	19.628
1185	102.634	65.987	21.511
1186	34.963	54.442	23.396
1187	18.251	48.548	22.390
1188	103.859	47.493	22.346
1189	94.870	45.188	14.939
1190	18.017	41.818	21.848
1191	79.652	39.614	18.596
1192	19.293	2.296	21.826
1193	75.392	77.015	22.562
1194	26.493	70.380	16.754
1195	71.340	64.064	20.494
1198	64.720	22.233	20.610
1199	79.935	11.524	20.973
1201	31.706	66.726	16.684
1203	7.380	62.161	19.452
1204	107.665	62.426	18.976
1205	80.403	32.134	19.659
1206	23.239	55.100	24.897
1207	86.061	43.651	21.765
1208	97.299	33.878	19.586
1209	90.471	33.113	18.008
1210	6.617	33.369	16.765
1211	31.194	32.188	19.170
1212	46.104	25.718	23.848
1213	95.615	27.941	18.870
1214	27.319	25.028	18.124
1215	18.880	20.171	19.343
1216	105.943	45.311	16.354
1217	79.468	81.765	26.230
1218	19.176	32.965	21.069
1219	37.653	37.218	18.909
1220	7.900	55.644	21.664
1221	40.038	52.461	18.525
1222	84.928	39.027	19.782
1223	7.309	37.799	20.567
1224	10.660	26.441	15.858
1225	102.515	25.984	18.858
1226	77.099	23.958	21.956
1227	71.757	23.426	19.647
1228	95.793	21.256	18.853
1229	53.522	40.149	22.284
1230	52.769	13.408	21.631
1231	45.139	10.475	19.586
1232	28.715	7.519	15.446
1233	21.663	3.627	15.460
1234	104.111	81.437	17.750
1235	16.590	81.828	21.436
1236	6.608	72.774	21.783
1237	37.216	57.708	19.258
1239	2.381	40.434	22.493
1240	104.762	12.626	21.409
1241	54.179	79.515	20.872
1242	33.121	85.584	21.885
1243	18.749	13.138	25.102
1244	30.642	43.414	19.185
1245	46.791	40.381	24.508
1246	13.674	31.732	21.960
1248	100.192	24.251	23.642
1249	35.145	22.092	20.059
1250	23.715	13.506	22.281
1252	48.014	83.530	21.500
1253	41.563	57.491	15.804
1254	72.615	70.202	23.192
1255	85.866	56.628	23.959
1256	79.876	55.249	23.169
1257	90.266	55.599	20.713
1258	48.473	53.018	22.454
1259	13.112	52.318	24.108
1260	25.022	44.005	23.082
1261	6.326	43.912	20.037
1262	12.660	37.614	24.368
1265	23.007	29.348	24.888
1266	8.587	65.840	25.037
1267	99.967	72.615	25.026
1268	35.609	65.852	10.290
1269	87.585	71.361	21.467
1270	58.578	63.359	21.434
1271	66.656	69.224	22.171
1272	97.810	49.952	20.143
1274	40.859	50.338	24.611
1275	89.581	7.637	26.583
1276	45.723	6.741	23.894
1277	81.418	72.418	21.459
1278	6.579	8.007	26.506
1279	97.207	66.048	23.847
1280	58.535	37.294	23.162
1281	103.302	32.281	23.390
1282	43.049	33.941	21.166
1283	9.448	16.391	23.908
1284	61.528	13.495	19.450
1286	9.923	83.284	20.902
1287	5.959	75.270	26.908
1288	27.314	77.500	21.019
1289	1.778	17.788	14.857
1290	17.752	24.078	24.382
1291	43.636	18.022	20.758
1294	48.472	76.766	20.060
1295	62.754	76.126	24.634
1296	40.328	77.947	21.204
1298	100.437	65.145	16.982
1299	81.599	62.378	22.912
1300	63.724	59.554	20.574
1302	54.729	60.913	18.532
1303	62.758	39.387	20.690
1304	109.185	45.028	21.643
1305	103.738	40.238	23.574
1306	63.160	33.282	19.847
1307	37.010	28.885	22.245
1308	57.412	30.445	24.911
1309	8.554	27.623	24.309
1310	82.750	21.828	24.500
1311	29.649	17.680	20.665
1312	10.522	44.386	23.931
1313	86.018	24.140	19.935
1314	94.206	4.818	21.013
1315	51.115	48.227	18.331
1316	82.225	16.921	21.563
1317	24.275	20.247	22.963
1318	108.780	15.268	18.010
1319	56.819	9.839	22.276
1321	58.726	7.453	16.543
1322	48.338	5.582	19.227
1323	24.499	9.203	19.701
1324	57.035	3.110	22.462
1325	72.697	44.073	22.539
1326	8.349	4.585	23.325
1327	19.958	77.275	20.661
1328	69.213	80.437	27.637
1329	11.429	70.581	23.061
1331	11.446	66.152	20.213
1332	96.400	57.205	24.567
1333	83.070	55.740	17.456
1334	92.362	51.183	25.498
1335	82.894	50.847	19.728
1337	68.264	14.916	20.553
1338	37.042	77.397	29.745
1339	65.966	9.353	18.053
1340	15.420	71.363	11.773
1341	20.229	61.078	13.881
1342	38.058	55.330	11.819
1344	13.089	55.110	15.265
1345	6.401	54.638	13.819
1346	27.813	51.125	16.709
1347	92.321	38.664	16.656
1348	8.182	41.707	14.353
1349	76.049	39.380	13.836
1350	49.546	37.214	17.868
1351	36.132	32.509	12.948
1352	75.715	26.548	16.918
1353	108.774	21.679	18.236
1354	89.231	18.107	15.720
1355	59.467	22.662	4.929
1358	6.032	86.098	9.214
1359	76.768	74.721	12.089
1360	12.132	77.816	13.443
1361	21.746	81.974	14.172
1362	82.130	8.848	12.461
1363	41.220	31.531	15.787
1364	56.796	32.104	19.710
1365	7.836	20.923	16.186
1366	44.012	15.044	14.696
1367	104.899	12.071	14.491
1368	93.562	12.883	15.443
1369	33.204	4.647	15.099
1370	40.907	83.215	15.657
1371	81.661	78.291	12.909
1372	102.649	17.947	19.428
1373	87.282	77.763	18.995
1374	20.612	66.789	13.534
1375	72.309	60.170	14.745
1376	61.133	42.681	13.982
1377	108.230	38.634	15.977
1378	1.599	40.859	13.114
1379	26.646	34.240	14.414
1381	35.126	11.679	13.929
1382	7.353	14.808	16.954
1383	104.230	73.030	14.141
1384	7.229	74.879	11.833
1385	86.996	71.283	10.085
1386	109.441	72.656	9.861
1387	20.329	54.402	14.682
1388	62.649	49.081	13.737
1389	99.427	42.125	8.142
1390	43.638	41.054	12.583
1391	44.417	35.570	13.061
1392	63.688	36.566	13.875
1393	33.445	36.790	14.744
1394	81.043	28.913	5.917
1395	25.439	28.713	15.744
1396	11.766	60.015	13.230
1397	22.059	22.491	14.476
1398	4.562	12.793	12.470
1399	77.776	6.643	17.603
1400	26.583	11.687	12.857
1401	46.941	2.582	13.285
1403	48.278	80.763	8.115
1404	38.717	78.812	11.202
1405	26.382	77.169	13.430
1407	33.031	19.064	13.038
1408	15.671	37.742	18.242
1409	82.733	65.971	12.475
1411	43.039	70.405	14.540
1412	88.781	49.038	12.551
1413	43.153	53.786	8.582
1414	61.849	53.153	18.307
1415	46.976	47.945	11.328
1416	20.459	42.348	17.494
1417	88.616	30.237	11.520
1418	44.819	20.727	16.048
1420	33.097	76.913	12.437
1422	73.535	50.924	12.525
1423	69.196	44.393	10.234
1424	81.807	31.483	12.498
1425	84.245	26.940	14.613
1426	8.470	31.668	11.601
1427	72.551	28.654	11.169
1428	86.910	22.347	12.117
1429	56.767	16.861	10.211
1430	89.883	13.717	6.975
1431	77.198	54.400	10.996
1432	103.629	66.914	11.952
1435	73.294	18.944	14.345
1436	49.776	13.499	16.365
1437	73.337	81.399	18.544
1439	78.819	69.453	16.734
1440	55.601	51.547	17.745
1441	88.985	49.294	19.944
1442	9.993	48.583	13.358
1443	70.237	49.755	17.199
1444	48.791	43.547	17.175
1445	26.411	42.728	14.337
1446	74.361	14.946	18.307
1447	44.268	8.167	14.569
1448	11.366	84.724	12.954
1449	64.917	74.746	15.314
1450	41.341	77.450	15.981
1451	47.626	72.315	18.003
1452	20.238	58.828	19.169
1453	56.857	57.431	14.221
1454	105.354	56.029	14.970
1455	57.997	10.668	9.189
1456	75.915	56.226	16.577
1457	81.633	45.440	17.234
1459	80.541	2.132	21.103
1460	63.568	68.802	16.446
1462	59.865	85.886	19.094
1463	5.936	79.839	16.567
1464	48.553	82.018	15.972
1465	51.742	74.535	15.324
1466	33.930	62.476	22.010
1467	106.007	53.876	19.529
1468	35.170	49.661	13.371
1469	67.237	56.659	18.942
1470	50.676	51.407	12.634
1471	99.615	16.019	13.623
1472	108.691	8.494	18.120
1473	8.028	3.867	15.929
1475	36.658	72.734	15.423
1476	59.469	65.152	15.499
1477	17.669	65.471	18.302
1478	26.888	65.768	13.027
1479	23.083	48.698	18.129
1480	10.122	51.101	18.655
1482	85.887	36.607	12.918
1483	67.175	3.268	15.951
1484	101.296	3.597	16.964
1485	54.033	80.200	15.515
1486	2.462	72.012	13.918
1487	52.147	64.464	11.021
1488	45.965	63.140	16.030
1489	48.237	57.953	16.700
1490	78.636	51.662	15.561