ITEM: TIMESTEP
1.402468454061974
ITEM: NUMBER OF ATOMS
1480
ITEM: BOX BOUNDS
1.0317460317460316 110.39682539682539
1.0317460317460316 87.28571428571428
2.5 48.0
ITEM: ATOMS id x y z
1	90.572	37.942	32.534
2	71.904	34.031	33.230
3	91.643	30.853	32.598
4	77.029	27.799	33.828
5	52.226	20.934	33.021
6	38.667	13.031	29.249
7	58.083	12.082	32.371
8	48.334	84.914	32.031
9	19.899	82.797	33.522
10	69.742	80.467	32.489
11	90.265	79.401	32.710
12	99.888	75.123	32.718
13	57.046	60.673	31.488
14	25.243	53.118	32.550
15	2.520	43.545	32.822
16	6.585	41.663	29.469
17	73.373	39.022	32.043
18	107.784	32.967	32.884
19	107.032	15.235	29.576
20	82.325	39.803	33.588
21	49.853	41.005	31.865
22	6.730	48.058	32.686
23	88.536	56.023	32.863
24	24.104	69.749	33.049
25	52.621	58.122	33.165
26	85.994	56.487	38.225
27	16.733	51.647	32.662
28	62.697	43.656	33.538
29	108.698	42.004	34.039
30	72.645	29.784	29.081
31	10.445	22.818	33.545
32	20.516	10.649	33.562
33	47.264	16.005	32.381
34	10.978	5.369	34.149
36	59.650	85.999	32.452
37	105.996	84.042	32.706
38	34.551	82.246	33.076
39	38.058	77.954	33.079
40	105.419	76.156	33.536
41	39.077	63.193	33.428
42	39.748	56.951	33.022
43	67.435	56.538	32.949
44	30.644	2.404	34.427
45	95.120	13.493	32.993
46	81.446	2.417	31.838
47	62.172	80.430	31.786
48	69.008	86.200	31.099
49	99.814	85.403	31.413
50	30.960	74.031	30.839
51	82.189	72.672	31.009
52	36.519	71.891	31.147
53	67.331	69.701	31.127
54	97.412	67.288	31.076
55	3.739	64.086	30.400
56	27.174	58.531	30.920
57	1.628	13.198	31.863
58	19.964	58.206	30.900
59	55.072	43.777	31.408
60	47.045	34.340	30.356
61	49.507	28.148	30.722
62	1.863	26.015	31.069
63	89.212	19.004	31.643
64	34.338	18.646	31.613
65	12.306	16.730	31.306
66	65.651	17.010	29.901
67	9.564	85.249	29.485
68	73.818	52.527	30.230
69	54.458	80.180	33.671
70	86.419	33.955	31.882
71	68.406	43.434	27.196
72	9.707	70.797	31.798
73	110.317	70.039	31.725
74	43.828	61.565	32.428
75	97.749	27.953	32.023
76	79.758	22.498	31.431
77	53.423	15.611	32.371
78	14.625	9.868	31.855
79	35.628	9.665	31.801
80	53.310	8.995	32.371
81	42.507	40.390	31.333
82	80.050	9.587	31.534
83	105.256	6.546	33.042
84	92.884	3.779	32.487
85	61.953	3.523	27.995
86	77.862	85.545	31.929
87	85.552	73.809	26.644
88	102.072	71.209	27.790
89	104.295	62.434	31.542
90	67.483	62.812	31.714
91	21.742	52.177	27.509
92	71.525	9.494	32.089
93	73.716	3.341	29.230
94	28.616	10.761	34.322
95	84.309	15.021	33.588
96	48.923	26.357	36.384
97	94.495	24.866	36.044
98	71.490	21.753	36.070
99	66.359	19.124	35.521
100	95.193	18.808	35.817
101	77.638	17.699	35.844
102	35.689	14.455	35.645
103	9.652	11.667	36.267
104	98.816	6.786	35.248
105	106.267	26.510	36.049
106	15.454	5.616	36.439
107	62.935	1.445	35.771
108	9.601	84.182	35.449
109	77.982	75.732	35.141
110	58.682	74.650	35.892
111	16.410	73.241	32.288
112	36.759	68.458	35.646
113	17.210	57.173	34.843
114	95.961	56.930	30.441
115	87.885	50.846	35.574
116	69.667	5.781	36.067
117	28.682	43.728	35.459
118	81.599	28.675	36.563
119	97.831	33.210	36.858
120	93.251	45.030	32.024
121	5.166	33.829	35.630
122	58.021	30.626	37.078
123	87.549	29.642	37.024
124	27.990	25.649	36.624
125	33.338	22.651	36.552
126	12.700	11.918	40.660
127	41.527	6.267	37.621
128	73.996	2.020	36.357
129	50.761	32.002	35.853
131	83.961	78.368	37.434
132	67.724	75.329	35.602
133	40.456	74.153	36.686
134	93.820	71.449	35.243
135	6.392	69.632	35.412
136	31.237	68.100	35.844
137	10.914	62.087	35.368
138	46.990	53.431	35.234
139	51.453	45.638	36.025
140	63.198	85.691	36.558
141	39.102	84.718	30.283
142	60.166	36.630	35.545
143	89.746	16.049	40.380
144	46.103	9.950	34.694
145	2.870	7.846	34.648
146	42.678	86.658	32.909
147	96.411	79.583	33.705
148	87.324	72.695	33.976
149	49.734	70.962	33.572
150	79.253	68.067	34.192
151	44.029	67.531	34.003
152	19.043	63.882	34.330
153	25.588	32.183	33.684
154	52.892	63.360	33.666
155	42.146	50.239	34.066
156	36.952	45.611	34.410
157	34.114	29.263	33.964
158	66.643	27.899	33.622
159	44.136	24.327	35.222
161	17.158	21.640	33.984
162	103.914	21.923	33.996
163	22.073	17.506	33.958
164	91.794	52.254	29.949
165	15.098	31.917	36.156
166	32.928	33.804	34.479
167	102.008	42.755	35.004
168	101.215	14.390	35.861
169	89.837	11.609	35.628
170	87.019	6.919	36.011
171	91.523	86.987	34.518
172	103.793	61.864	38.924
173	36.754	52.565	34.468
174	104.777	47.845	35.112
175	68.656	46.345	35.244
176	17.929	46.815	34.702
177	22.271	39.028	33.855
178	20.468	26.776	35.280
179	85.020	84.087	34.430
180	71.795	71.352	34.507
181	81.930	67.085	29.671
183	85.641	60.963	34.651
184	3.520	57.444	34.219
185	105.446	57.523	34.812
186	10.439	51.901	33.905
187	74.630	44.759	34.566
188	27.667	19.668	34.677
189	79.646	45.980	36.092
190	3.866	80.587	30.102
191	43.002	75.087	30.332
192	23.807	2.092	27.127
193	54.772	81.164	27.592
194	105.199	76.854	27.943
196	53.315	48.863	27.326
197	98.387	47.774	27.478
198	61.342	45.092	27.468
199	47.814	42.593	27.220
200	63.893	37.028	26.469
201	12.503	22.570	27.548
202	53.684	14.343	27.295
203	31.487	13.985	28.438
204	103.137	9.295	26.085
205	12.162	8.622	26.658
206	86.445	80.974	27.266
207	108.231	66.124	26.997
208	12.552	59.725	22.924
209	52.964	55.192	26.459
210	34.197	50.369	26.134
211	29.288	2.046	27.775
212	67.941	3.946	26.634
213	32.159	7.356	27.809
214	95.203	7.887	27.577
215	55.218	32.808	29.210
216	92.532	15.781	27.808
218	48.919	82.672	27.471
219	17.749	81.088	27.959
220	92.455	80.069	27.872
221	73.385	77.802	27.980
222	12.715	76.438	27.868
223	65.593	75.876	27.546
224	90.067	46.888	27.639
225	77.538	71.696	27.483
226	73.496	64.854	23.680
227	104.185	58.987	22.506
228	15.212	57.563	27.343
229	17.490	47.069	27.261
230	103.572	44.305	28.396
231	21.391	40.775	27.474
232	108.012	32.411	27.031
233	6.899	20.022	27.609
234	74.214	12.972	27.319
235	27.940	70.763	27.295
236	11.185	38.230	27.295
237	83.203	37.058	26.241
238	21.527	35.465	26.535
239	5.576	12.324	22.483
240	108.404	8.399	26.414
241	71.347	84.805	25.991
242	98.925	82.823	22.016
243	90.634	80.523	21.513
244	44.408	80.046	26.405
245	27.482	62.902	25.221
246	45.148	61.774	24.921
247	71.578	51.641	25.696
248	81.018	13.707	26.184
250	70.232	35.859	24.652
251	27.533	27.362	26.481
252	53.206	25.465	25.748
253	71.317	19.716	25.959
254	80.964	19.490	25.249
255	88.301	18.308	25.462
256	99.400	14.981	26.028
257	48.386	13.497	25.849
258	67.780	9.507	24.820
259	38.385	43.470	24.893
260	77.249	33.924	28.163
261	3.130	15.916	26.215
262	40.528	24.582	26.183
263	79.150	28.389	26.687
264	94.509	24.335	26.790
265	64.571	23.480	26.501
266	43.687	19.143	26.433
267	25.041	17.395	27.112
268	20.418	86.025	25.457
269	104.359	84.692	26.497
270	66.181	81.551	26.735
271	50.939	72.153	26.091
272	50.755	19.843	26.115
273	21.620	68.720	26.481
274	1.870	66.328	25.694
275	50.625	66.092	25.479
276	67.435	58.821	26.589
277	26.384	51.415	25.717
278	76.734	48.767	22.069
279	88.948	35.757	26.097
280	37.165	35.432	26.176
281	49.835	30.722	25.931
282	61.100	27.342	25.969
283	8.082	68.430	26.261
284	78.079	40.754	27.389
285	78.920	46.284	28.580
286	58.539	51.114	24.191
287	94.532	31.290	24.940
288	16.199	28.450	29.842
289	103.326	25.594	30.092
290	22.036	23.107	29.112
291	47.346	6.843	30.165
292	32.871	78.875	28.931
293	54.940	68.851	30.525
294	32.744	64.208	29.565
295	83.921	50.473	29.108
296	97.806	34.297	30.683
297	84.092	44.433	29.697
298	42.590	29.176	30.128
299	85.059	29.161	29.497
300	89.568	24.739	29.021
301	46.709	22.528	29.298
302	97.826	19.252	30.072
303	104.560	18.498	25.436
304	58.744	18.430	28.615
305	76.673	17.568	28.993
306	22.169	13.775	29.608
307	64.527	32.562	29.463
308	8.571	11.889	29.086
309	16.341	36.641	30.458
310	33.245	40.751	30.971
311	94.039	70.361	25.522
312	91.131	70.518	30.578
313	12.118	66.388	30.975
314	38.802	60.171	27.251
315	3.951	53.758	29.360
316	66.792	50.126	31.632
317	15.669	42.010	31.127
318	58.257	36.977	30.847
319	59.063	23.941	30.709
320	95.922	39.877	29.786
321	76.252	23.762	26.451
322	3.486	2.651	31.068
323	15.923	86.964	29.622
324	82.821	84.203	29.771
325	53.772	75.412	30.417
326	61.613	64.918	29.198
327	9.088	60.698	30.075
328	32.014	56.463	29.540
329	61.024	50.515	30.799
330	43.720	45.384	29.698
331	70.212	21.104	31.066
332	80.993	78.478	31.143
333	63.307	9.172	29.499
334	93.197	86.318	29.088
335	80.458	54.817	28.554
336	11.087	53.315	27.948
337	10.897	45.331	28.633
338	27.282	39.747	28.683
339	6.272	26.135	27.381
340	31.059	21.351	28.786
341	108.177	20.886	28.469
342	41.116	3.045	28.592
343	12.428	2.208	28.658
344	106.278	57.108	27.981
345	85.605	1.097	25.892
346	29.892	84.653	27.624
347	3.175	74.278	27.782
348	41.245	68.593	28.151
349	94.094	63.648	27.543
350	22.958	59.560	23.688
351	3.123	58.064	27.476
352	62.088	56.495	27.523
353	39.099	53.275	26.736
354	101.406	53.395	27.654
355	63.715	86.567	27.955
356	17.104	4.527	29.309
357	74.342	59.149	28.519
358	15.390	62.652	28.736
359	22.870	77.078	28.512
360	33.487	69.917	25.914
361	22.209	63.084	29.261
362	84.869	59.285	29.451
363	46.995	57.199	29.952
364	48.704	49.608	29.257
365	26.906	45.961	29.360
366	106.390	38.741	29.765
367	31.248	36.038	28.621
368	99.988	60.375	28.034
369	102.603	35.242	33.539
370	89.101	29.266	24.501
371	31.334	28.559	29.186
372	16.617	19.588	29.256
373	58.937	8.557	25.061
374	27.142	8.680	29.379
375	87.710	5.712	29.387
376	109.602	3.048	28.980
377	86.615	1.020	34.600
378	47.378	69.258	28.126
379	8.826	32.801	29.209
380	99.995	49.374	33.011
381	30.092	50.640	35.867
384	79.759	81.045	43.531
385	66.950	74.508	47.356
386	9.587	69.626	43.629
387	84.076	66.784	44.107
388	85.425	59.793	44.282
389	55.506	57.186	43.286
391	87.757	52.357	44.066
392	27.805	48.983	44.129
393	1.279	48.444	42.948
394	92.560	45.930	44.708
395	58.826	45.062	44.520
396	47.712	44.923	44.688
397	55.403	38.469	44.531
398	43.830	22.696	44.397
399	66.492	21.908	43.612
400	60.878	18.558	43.709
401	78.827	13.895	44.853
402	53.899	9.518	45.223
403	27.956	24.832	44.622
405	31.894	43.879	44.894
406	58.711	78.229	41.395
410	80.393	43.212	45.212
411	95.456	34.000	45.124
412	12.656	19.221	44.968
413	90.597	18.105	45.618
414	72.496	14.814	44.732
415	103.800	13.259	44.212
416	27.680	13.459	44.827
417	107.598	74.775	44.525
418	39.283	68.223	44.949
419	57.592	66.427	44.813
421	105.585	64.734	47.909
422	46.143	52.292	43.469
423	21.611	51.288	43.495
424	15.928	50.677	44.591
425	22.448	46.083	44.659
426	81.552	6.550	44.920
427	62.326	8.738	43.849
428	74.925	7.011	43.057
429	46.922	80.807	43.465
430	14.840	72.562	43.209
431	99.423	72.527	43.225
432	63.009	59.337	42.586
433	13.031	57.810	42.459
434	94.252	40.522	47.008
435	48.055	37.500	42.635
436	15.577	35.113	42.838
437	27.337	31.270	42.830
438	64.513	29.809	44.069
439	54.955	82.407	43.724
440	86.715	29.827	42.650
441	7.378	24.984	42.668
442	96.772	5.396	42.784
443	86.901	5.478	42.574
444	46.966	5.110	42.848
445	39.864	2.947	43.107
446	71.523	82.073	42.096
447	10.038	78.082	42.334
448	69.572	76.725	42.540
449	74.112	58.592	42.563
450	57.762	28.002	42.572
451	53.698	78.891	47.699
452	26.694	5.382	43.904
453	75.469	22.121	38.849
454	17.481	77.679	43.981
455	41.914	73.527	43.440
456	48.572	73.038	43.491
457	66.425	71.482	43.099
458	20.549	68.313	44.358
459	106.587	65.665	43.578
460	44.150	65.504	46.847
461	97.091	64.704	43.615
463	6.835	11.749	43.016
464	98.425	55.705	43.404
465	103.287	48.653	43.177
466	6.815	44.890	42.977
467	41.605	33.652	43.385
468	102.341	32.619	43.069
469	46.873	27.514	44.003
471	70.069	25.400	44.087
472	110.016	25.947	47.922
473	20.742	22.551	44.257
474	8.723	51.426	43.005
475	22.776	78.228	44.823
476	65.708	83.759	45.022
477	103.769	86.619	44.420
478	86.709	42.995	47.401
479	60.913	38.233	47.328
480	87.025	37.423	47.376
481	32.489	33.684	46.464
482	57.054	33.639	47.470
483	71.906	29.996	47.140
484	11.096	29.182	47.487
485	82.416	28.862	46.773
488	90.617	25.559	42.531
489	4.711	14.674	46.960
490	58.194	12.514	46.972
491	88.338	9.960	47.365
492	99.122	2.303	47.005
493	24.032	85.101	41.999
494	5.120	73.587	46.059
495	29.129	64.595	46.498
496	109.567	51.839	46.899
497	82.955	51.730	46.035
498	97.714	20.235	47.144
499	97.859	49.638	46.997
500	66.273	57.575	46.910
501	49.157	58.001	46.949
503	95.172	59.697	47.169
504	90.846	57.910	43.137
505	1.286	58.185	47.421
511	18.178	57.055	46.525
512	39.422	20.711	47.622
513	36.358	6.559	47.166
514	41.732	4.632	47.310
515	91.691	2.006	47.591
516	21.237	82.450	46.559
517	86.631	79.731	46.544
518	56.696	74.649	46.570
519	83.913	73.291	42.721
520	74.435	71.337	47.128
521	26.766	70.582	46.693
522	42.455	15.977	47.173
523	29.718	56.501	42.834
524	16.308	44.123	47.093
525	2.775	39.703	46.903
526	83.580	16.114	45.701
528	97.148	9.567	46.174
530	58.310	5.031	45.830
531	30.293	84.605	45.091
532	98.960	81.167	45.219
533	34.959	62.310	45.157
534	102.506	61.883	45.828
535	31.803	19.696	46.166
536	21.772	61.511	44.346
537	105.829	41.004	46.364
539	29.877	38.228	44.335
540	84.367	22.791	46.051
541	53.603	19.677	45.472
542	110.191	16.838	45.875
543	107.965	11.252	44.970
544	69.049	6.630	45.921
545	13.109	1.804	45.927
546	58.516	50.717	45.489
547	36.343	40.620	45.866
550	107.064	33.797	45.699
551	51.089	32.427	42.357
552	4.599	21.123	45.458
553	19.397	15.925	46.107
555	106.746	3.637	46.518
556	49.151	85.590	45.480
557	73.758	76.715	46.223
558	28.624	77.900	45.861
559	78.244	25.167	47.118
560	88.541	71.412	46.588
561	64.253	65.495	45.706
562	14.167	64.425	44.919
563	77.595	54.300	46.016
564	36.300	47.565	46.595
565	25.903	41.767	42.327
566	10.708	40.367	45.636
568	21.062	31.348	46.125
569	38.209	29.629	46.141
570	31.411	70.825	42.145
571	94.866	52.345	39.154
572	107.829	50.152	38.584
573	66.362	41.546	43.350
574	6.222	27.438	38.460
575	2.472	12.920	38.201
576	66.842	12.233	33.764
577	85.178	12.630	39.003
578	53.837	9.474	38.762
580	31.028	78.733	37.506
581	109.491	72.736	37.387
582	80.522	58.481	38.110
583	43.543	32.034	38.038
584	33.677	56.303	37.100
585	1.990	46.613	38.328
586	96.936	39.560	38.447
587	27.858	36.444	38.061
588	82.535	34.078	38.417
589	86.040	24.963	34.282
590	5.736	21.666	37.986
591	53.028	19.599	38.435
592	77.282	12.257	37.942
593	60.848	11.112	37.441
594	24.471	47.567	37.650
595	23.841	9.741	38.378
596	34.413	34.380	41.350
597	65.330	46.680	38.387
598	9.068	17.270	39.047
599	83.272	2.320	39.837
600	91.631	82.078	39.877
601	101.069	82.538	39.000
602	65.466	80.359	38.999
603	90.187	69.514	39.883
604	22.648	64.377	38.813
605	55.496	62.210	38.638
606	91.341	38.387	39.073
607	8.297	41.297	38.149
608	63.648	26.470	39.562
609	31.417	15.842	38.787
610	30.545	8.283	39.498
611	7.752	6.490	39.305
612	60.329	4.724	39.289
613	19.687	86.546	39.361
614	31.034	84.756	37.533
615	62.644	63.141	38.360
616	36.844	62.961	39.164
617	54.555	52.408	38.584
618	46.670	20.539	39.674
619	15.597	18.490	39.946
620	25.625	4.213	38.133
621	55.532	84.396	37.511
622	77.359	80.740	37.902
623	15.233	70.137	37.631
624	64.434	68.623	37.007
625	106.528	67.689	36.937
626	26.352	58.592	36.816
627	93.178	57.038	36.759
628	6.206	53.601	37.339
629	88.448	43.759	37.206
630	34.402	39.252	36.912
631	46.251	82.187	37.528
632	46.796	37.351	36.368
633	26.932	72.454	37.296
634	101.122	69.790	36.101
635	27.601	65.598	32.296
636	90.471	64.529	36.203
637	5.792	64.158	35.546
638	98.170	63.188	35.997
639	74.228	57.014	35.723
640	100.681	56.968	36.659
641	60.889	52.703	35.688
642	26.928	78.532	32.136
644	35.398	5.934	36.948
645	106.562	11.335	37.804
647	24.095	80.714	37.939
648	13.262	79.577	37.710
649	2.743	75.636	33.985
650	45.860	73.480	38.560
652	47.061	61.192	37.092
653	69.726	61.136	37.683
654	20.855	51.960	38.027
655	94.001	8.697	37.363
656	58.670	47.852	38.341
657	77.786	36.237	33.250
658	39.087	34.993	33.806
659	64.284	32.034	37.722
660	71.560	29.864	37.922
661	101.543	29.503	38.138
662	84.089	18.841	37.673
663	59.921	16.698	37.649
664	41.265	16.473	37.136
665	71.371	15.074	37.050
666	66.321	38.426	32.721
667	53.265	7.916	25.377
668	107.750	22.581	40.208
669	11.539	36.817	39.272
670	6.102	79.063	37.074
671	103.640	76.495	41.443
672	61.168	72.500	41.585
673	23.132	72.096	41.052
674	71.192	71.508	41.370
675	83.462	67.499	37.890
676	2.153	65.609	41.083
677	7.739	63.954	41.588
678	27.334	62.458	41.277
679	106.023	82.552	43.427
680	4.142	60.244	41.272
681	36.756	43.505	40.635
682	35.281	26.336	40.687
683	82.147	25.772	41.260
684	54.222	15.032	41.657
685	43.546	85.617	40.125
686	93.494	75.878	41.088
687	20.534	75.483	37.038
688	69.249	66.331	41.091
689	79.141	62.926	40.479
690	70.386	48.801	41.758
691	41.729	59.379	40.952
692	60.471	86.442	41.504
693	4.352	1.943	42.341
694	85.690	40.118	43.048
695	48.692	15.497	42.714
696	13.558	85.968	42.369
697	35.345	84.367	42.925
698	85.491	73.984	41.950
699	77.037	73.953	41.830
700	34.833	75.078	41.622
701	78.623	68.471	41.658
702	105.310	54.679	42.452
703	29.769	1.505	41.362
704	37.103	54.610	41.952
705	20.692	38.832	41.907
706	6.067	34.383	41.462
707	99.573	24.659	42.613
708	52.451	23.652	42.017
709	99.099	18.076	41.835
710	38.054	17.333	42.307
711	64.815	13.858	40.672
712	17.172	7.336	42.054
713	68.883	1.786	41.886
714	53.801	45.139	42.149
715	23.916	27.891	39.343
716	33.501	50.258	41.444
717	97.917	47.476	40.658
718	75.956	43.831	40.964
719	61.221	41.796	40.599
720	54.959	39.217	35.886
721	78.931	38.852	40.983
722	63.763	36.312	41.066
723	76.650	28.521	40.342
724	42.271	25.842	40.353
725	61.394	22.149	40.175
726	20.896	16.793	39.879
727	63.865	54.308	40.766
728	107.594	3.003	39.911
729	37.964	79.341	39.125
730	54.691	74.709	39.109
731	54.727	68.899	39.497
732	16.524	62.928	40.085
733	77.418	51.853	38.951
734	47.817	47.941	39.184
735	90.392	48.383	39.525
736	104.421	41.050	39.184
737	71.530	38.326	39.685
739	41.041	50.609	41.202
740	42.178	64.885	39.535
741	82.767	84.349	39.116
742	84.476	46.923	40.602
743	42.295	39.976	40.636
744	68.341	36.952	44.919
745	107.485	35.432	40.343
746	25.560	19.038	40.950
748	37.203	10.339	41.119
749	47.658	2.186	37.363
750	19.781	2.434	40.862
752	69.375	55.396	40.409
753	17.116	46.664	40.747
754	107.926	45.877	42.068
755	108.336	28.808	41.137
756	18.078	29.104	41.034
757	94.078	21.175	40.531
758	45.607	10.367	40.473
759	77.833	5.515	36.542
760	52.293	2.533	40.251
761	5.876	84.804	40.043
762	12.873	51.277	40.272
763	76.735	7.897	25.059
764	43.199	44.610	36.164
765	46.484	3.158	25.712
766	79.765	18.512	9.148
767	25.057	14.283	9.666
768	93.338	9.948	5.791
769	34.038	8.945	8.471
770	82.726	86.987	9.517
771	31.330	73.163	9.063
772	25.585	69.401	9.629
773	50.820	60.496	9.396
774	79.658	58.132	8.950
775	74.519	49.428	8.292
776	36.316	48.494	9.289
777	108.024	36.959	8.315
778	74.297	31.229	8.162
779	70.085	12.128	4.594
780	7.992	10.828	9.765
781	103.822	85.394	8.512
782	92.457	79.480	7.741
783	48.367	74.712	9.097
784	66.415	70.008	8.486
785	10.558	18.456	10.204
787	37.772	35.030	9.679
788	89.409	34.830	9.553
789	19.986	50.453	9.998
790	90.021	47.609	9.500
791	4.352	47.778	9.295
792	99.159	31.904	10.340
793	106.618	26.674	11.051
794	15.044	25.966	10.196
795	39.032	23.098	10.203
796	27.820	19.552	9.775
797	2.813	18.152	10.606
798	104.091	64.291	8.415
799	53.203	10.447	10.812
800	94.410	85.751	9.828
801	74.280	74.845	8.772
802	21.042	64.609	8.821
803	73.453	59.970	9.262
804	64.762	57.056	9.440
805	46.011	46.300	8.439
806	89.598	42.107	6.422
807	76.869	43.019	8.442
808	28.380	38.561	10.123
809	73.441	11.455	10.066
810	20.587	58.524	8.314
811	39.940	57.344	8.061
812	94.193	39.409	8.101
813	60.286	26.720	7.136
814	75.918	22.042	7.922
815	102.312	17.432	8.019
816	77.590	6.026	8.028
817	69.791	79.502	7.557
818	86.601	77.399	3.965
819	103.442	77.367	2.962
820	15.971	69.457	7.435
821	79.372	67.777	8.107
822	68.824	30.753	8.060
823	61.314	66.035	6.992
824	14.385	51.981	6.844
825	54.622	48.768	7.070
826	47.913	40.362	3.599
827	1.873	40.831	7.200
828	70.411	38.990	7.984
829	46.744	32.720	7.555
830	33.116	32.643	7.471
831	19.268	30.206	8.074
832	36.939	27.858	7.665
833	36.309	65.005	7.060
834	8.352	52.416	10.593
835	80.515	34.278	7.414
836	15.000	37.548	9.255
837	8.561	37.356	8.452
838	51.552	35.575	8.738
839	102.465	32.056	4.170
840	93.900	29.057	8.976
841	51.529	25.091	8.665
842	7.353	24.281	9.944
843	16.139	19.854	8.953
844	43.583	16.810	8.966
845	73.107	16.032	7.994
846	73.215	34.854	3.602
847	96.634	3.412	9.449
848	60.312	84.728	8.738
849	37.073	74.664	7.472
850	71.677	67.630	7.411
851	5.229	61.107	9.057
852	106.017	61.075	3.612
853	9.703	57.828	8.514
854	49.263	54.168	7.839
855	17.243	45.615	7.574
856	0.655	45.871	11.215
857	29.489	86.919	8.312
858	71.101	55.229	9.983
859	44.773	62.615	10.564
860	49.940	74.711	10.018
861	34.043	55.507	12.570
862	59.901	55.335	13.038
863	100.642	55.010	13.115
864	15.150	49.465	12.862
865	50.879	41.170	9.013
866	21.742	29.040	12.800
867	69.071	8.486	7.863
868	55.029	3.119	13.037
870	90.818	59.541	11.890
871	32.413	79.623	11.599
872	27.662	51.995	11.845
873	106.632	49.046	12.403
874	83.719	45.466	12.303
875	73.284	45.428	12.042
876	6.998	43.054	12.093
877	36.207	41.744	11.608
878	27.041	31.482	8.199
879	52.660	30.882	11.457
880	47.234	27.796	12.308
881	76.924	64.714	12.081
882	57.399	27.271	11.694
883	67.372	61.488	13.407
884	32.292	64.448	12.476
885	94.808	54.594	13.234
886	51.346	53.567	12.758
887	100.345	48.072	13.092
888	107.924	32.130	12.380
889	41.318	26.509	13.553
890	95.225	25.393	13.528
891	66.231	23.992	13.203
892	71.457	21.756	12.503
893	56.967	20.031	12.953
894	58.810	63.379	12.502
895	79.764	14.312	13.520
896	98.377	8.337	16.979
897	73.726	2.723	13.823
898	90.084	86.356	12.506
899	71.913	85.955	12.756
900	74.440	81.492	13.244
901	67.282	80.067	11.943
902	55.321	74.408	12.435
903	95.658	66.519	12.275
904	90.404	65.661	12.557
905	45.956	10.697	12.928
906	30.689	26.171	7.622
907	109.305	14.238	11.134
908	14.524	3.860	12.359
909	63.157	29.597	11.421
910	49.738	20.745	11.037
911	93.539	14.526	10.503
912	15.938	9.780	11.589
913	39.436	7.098	11.197
914	107.588	4.393	11.861
915	84.164	1.353	10.387
916	9.029	65.915	10.387
917	85.502	60.017	11.183
918	65.386	39.093	10.617
919	30.307	45.487	10.187
920	25.221	44.326	10.819
921	61.936	42.846	10.595
922	58.251	37.631	9.530
923	83.569	23.503	10.222
924	87.848	6.805	9.175
925	21.884	6.426	10.290
926	26.332	1.755	10.579
927	48.947	81.863	6.439
928	14.148	80.730	9.874
929	11.263	46.118	11.098
930	63.741	12.561	11.972
931	102.067	40.054	11.068
932	84.445	51.222	10.665
933	41.251	82.275	6.505
934	1.917	73.847	11.033
935	13.880	55.516	11.557
936	79.971	52.055	6.988
937	74.211	36.505	11.035
938	31.423	23.917	15.868
939	36.585	12.463	11.365
940	50.681	5.523	8.692
941	65.534	5.520	10.905
942	56.272	44.718	10.676
943	31.671	3.783	10.856
944	57.628	79.795	12.093
945	107.031	80.442	11.287
946	100.813	79.029	10.169
947	17.748	74.729	11.343
948	67.105	74.045	11.562
949	42.901	73.248	10.574
950	21.969	72.418	7.545
951	9.722	72.794	10.052
952	45.826	57.658	11.343
953	23.322	80.396	11.128
954	34.017	19.282	7.591
955	16.932	14.073	8.119
956	78.236	11.456	7.173
957	77.335	55.795	3.921
958	44.028	54.329	4.330
959	50.784	44.339	4.598
960	105.183	40.499	3.946
962	17.148	25.010	4.395
963	54.208	21.227	4.101
964	19.140	17.762	3.420
965	98.427	13.435	4.511
966	17.372	57.168	4.046
969	40.490	6.077	3.997
972	92.155	72.440	2.985
973	24.674	69.237	3.803
975	32.680	66.452	3.299
976	20.332	51.208	3.758
977	18.237	7.209	4.137
978	94.414	48.839	3.861
979	6.478	60.428	3.814
981	47.249	20.194	5.122
982	2.103	15.963	5.461
983	84.363	8.447	4.536
985	98.621	85.687	4.013
986	54.370	77.816	4.724
987	6.750	75.986	5.312
988	49.341	58.037	1.203
989	53.014	56.460	4.069
990	31.063	60.974	4.231
991	71.576	57.132	4.531
992	12.279	41.883	5.235
993	25.854	19.011	4.091
994	43.185	11.076	3.645
995	73.283	5.663	4.422
996	15.332	85.436	3.983
998	8.630	70.005	4.076
999	21.787	63.045	4.006
1000	97.041	63.118	5.036
1001	7.771	54.349	4.636
1003	7.250	46.460	3.350
1006	44.553	73.414	2.597
1007	67.532	72.250	2.564
1009	36.413	52.410	2.460
1010	106.194	50.229	2.933
1011	1.017	44.744	2.510
1012	96.730	43.648	2.359
1013	61.972	43.354	3.199
1015	17.731	39.632	2.213
1017	2.772	33.832	3.024
1018	9.167	25.228	3.612
1020	84.513	14.846	3.365
1021	50.763	7.503	2.434
1023	63.834	3.305	21.060
1025	6.236	40.290	2.827
1026	29.173	40.905	3.704
1027	26.368	77.275	3.059
1028	51.464	2.087	3.613
1029	28.846	33.928	3.641
1031	63.357	29.345	2.963
1032	28.294	24.059	3.606
1033	3.647	23.442	3.743
1034	60.022	12.320	3.811
1035	34.775	2.102	3.037
1037	3.606	84.745	2.980
1038	95.287	1.907	3.636
1039	80.159	82.472	3.485
1040	15.692	65.202	2.970
1042	77.363	40.061	2.913
1043	90.801	33.958	3.118
1044	83.333	34.138	2.479
1045	22.573	28.193	2.517
1046	49.847	25.016	2.331
1047	41.884	19.658	2.996
1048	5.539	13.521	2.395
1049	37.004	71.726	3.382
1050	4.711	66.077	13.000
1051	82.200	22.518	5.536
1053	64.116	53.111	2.913
1054	31.128	51.211	6.742
1055	69.584	51.509	6.184
1056	60.775	48.106	7.308
1057	82.579	44.820	6.266
1058	40.787	44.430	6.166
1059	39.190	38.843	6.408
1060	33.177	39.133	6.961
1061	99.778	36.657	6.928
1062	24.700	54.719	6.016
1063	21.206	36.148	6.028
1064	109.128	24.817	2.926
1065	21.878	22.863	6.710
1066	100.064	22.544	10.574
1067	58.903	22.279	6.638
1068	45.442	5.622	7.118
1070	22.666	84.822	5.561
1071	20.719	78.367	5.940
1073	58.296	32.919	6.854
1074	56.900	69.878	6.038
1075	41.974	68.130	6.623
1076	99.629	69.502	5.825
1077	46.682	10.678	7.402
1078	61.471	6.961	7.353
1079	28.747	79.342	7.481
1080	82.317	74.823	7.055
1081	88.511	69.686	7.126
1082	50.884	69.244	6.359
1083	88.165	63.550	7.186
1084	26.119	63.093	7.834
1085	59.671	55.539	6.673
1086	93.813	67.901	6.939
1087	1.532	54.839	6.428
1088	25.372	49.513	7.179
1089	44.858	26.799	7.486
1090	70.673	21.279	7.288
1091	7.850	19.651	4.262
1092	64.831	15.709	6.647
1093	51.419	16.604	7.039
1094	13.500	6.589	6.999
1095	17.341	1.794	7.012
1096	17.688	72.957	3.151
1097	99.319	52.845	7.156
1098	102.706	25.438	4.860
1100	86.233	55.054	5.949
1101	69.600	45.015	5.821
1102	85.062	39.147	5.231
1103	9.716	30.651	5.458
1104	28.012	10.263	5.007
1105	10.157	2.399	5.901
1106	90.448	2.076	5.462
1107	34.873	81.860	5.660
1108	61.297	77.148	5.901
1109	14.856	78.092	4.047
1110	12.434	60.793	5.508
1111	97.406	75.622	5.055
1112	76.750	64.798	5.032
1114	40.581	61.950	5.553
1115	65.114	61.271	4.634
1116	58.888	60.363	4.893
1117	100.500	58.496	5.940
1118	88.611	49.848	5.387
1119	101.695	45.097	4.924
1120	34.474	45.543	4.602
1121	82.067	66.944	1.582
1122	53.585	63.591	5.815
1123	2.705	65.361	5.592
1124	107.561	67.799	4.904
1125	21.040	42.821	5.416
1126	37.135	32.936	1.735
1127	110.096	32.100	6.090
1128	65.955	23.506	6.961
1129	88.386	23.145	6.665
1130	106.887	20.696	6.017
1131	96.534	20.800	5.504
1133	21.760	12.166	5.777
1134	46.998	67.292	5.819
1135	38.042	11.880	6.372
1136	3.076	7.191	6.400
1137	56.148	6.871	5.822
1138	110.062	6.069	6.020
1139	104.126	5.300	5.953
1140	24.246	4.301	5.442
1142	75.139	85.238	6.064
1144	76.689	78.681	5.097
1145	106.258	10.889	5.941
1146	55.541	68.201	12.620
1147	82.883	3.918	2.449
1148	62.250	69.434	13.080
1149	85.194	5.712	20.878
1150	36.583	74.179	20.641
1151	54.767	68.337	20.813
1152	21.868	64.870	21.291
1153	87.369	61.742	16.744
1154	66.778	55.275	21.828
1155	63.297	48.240	21.116
1156	97.653	44.367	17.512
1157	73.109	38.567	16.669
1158	84.376	30.645	21.364
1159	13.702	21.369	21.580
1160	7.852	20.751	21.015
1161	58.944	21.080	20.643
1162	76.108	20.380	20.448
1163	33.991	18.524	20.604
1164	28.306	17.898	20.595
1165	71.845	7.000	21.541
1166	25.437	2.686	20.219
1167	83.296	81.245	20.102
1168	36.089	5.790	21.197
1169	95.332	11.230	21.108
1170	70.483	30.775	21.356
1171	42.822	38.035	21.277
1172	29.597	80.344	22.015
1173	105.955	73.201	21.737
1174	17.862	70.221	21.327
1175	86.953	68.660	18.035
1176	73.358	59.443	21.851
1177	6.762	49.327	26.504
1178	46.118	44.810	21.792
1179	25.225	35.280	21.804
1180	108.806	24.074	21.941
1181	91.708	75.443	20.078
1182	38.541	13.036	21.618
1183	1.844	86.370	18.375
1184	12.111	79.090	21.996
1185	101.282	69.248	21.841
1186	34.561	57.898	21.076
1187	20.315	48.415	21.609
1188	101.938	46.696	22.143
1189	92.118	45.910	22.058
1190	22.392	39.396	21.232
1191	79.008	39.194	21.982
1192	14.590	2.767	21.783
1193	75.930	75.040	20.968
1194	30.476	75.155	19.845
1195	68.431	61.525	20.077
1197	109.583	28.886	19.841
1198	65.069	21.380	19.488
1199	77.261	8.234	19.645
1200	42.011	1.664	19.754
1201	29.865	68.741	19.948
1202	94.592	67.809	18.897
1203	5.461	65.409	19.660
1204	109.242	60.846	19.474
1205	78.816	32.948	19.640
1206	23.597	54.251	19.966
1207	85.635	43.315	23.966
1208	97.488	37.258	19.492
1209	89.853	33.234	19.921
1210	8.857	30.448	19.772
1211	29.451	28.233	19.951
1212	42.689	28.236	20.112
1213	94.398	27.269	19.607
1214	24.899	24.434	19.892
1215	20.452	21.224	19.194
1216	104.248	42.644	15.150
1217	77.871	83.728	22.893
1218	19.057	33.386	20.014
1219	37.346	36.473	20.168
1220	8.310	56.019	21.349
1221	36.867	50.270	20.053
1222	85.703	37.470	20.828
1223	10.082	36.622	20.668
1224	14.320	29.628	17.006
1225	102.032	28.966	20.936
1226	75.348	27.468	20.047
1227	71.222	23.739	20.186
1228	91.965	18.671	20.554
1229	53.403	33.788	19.467
1230	52.326	18.499	21.277
1231	44.821	13.729	20.642
1232	25.715	9.828	19.680
1233	19.969	1.988	16.766
1234	102.921	83.562	19.203
1235	17.374	81.034	19.470
1236	6.882	72.248	19.520
1237	41.138	59.690	19.579
1238	2.011	54.189	20.502
1239	5.967	38.977	23.932
1240	102.423	14.988	20.531
1241	56.010	83.314	22.173
1242	35.718	84.098	22.343
1243	15.653	10.266	22.589
1244	32.343	42.140	23.422
1245	49.281	37.171	24.088
1246	13.979	32.263	24.451
1247	3.320	31.530	22.958
1248	101.082	25.654	24.445
1249	33.351	24.725	24.180
1250	21.952	11.097	24.267
1251	96.346	0.863	28.732
1252	48.604	85.739	22.846
1253	41.576	52.975	19.393
1254	68.905	70.822	24.458
1255	86.851	59.388	24.024
1256	81.114	57.820	22.573
1257	90.683	57.356	19.346
1258	45.898	54.858	23.641
1259	15.095	53.225	22.772
1260	24.948	44.139	24.485
1261	3.415	44.196	20.169
1262	16.621	37.705	23.633
1264	89.749	65.313	23.603
1265	22.780	28.551	23.561
1266	6.725	61.277	23.778
1267	97.891	76.184	24.572
1268	34.566	69.630	13.283
1269	84.807	68.012	24.619
1270	59.455	65.331	25.067
1271	67.690	65.265	24.550
1272	95.427	52.393	25.425
1273	107.892	50.873	24.461
1274	40.939	47.953	24.594