ITEM: TIMESTEP
53.02113482297236
ITEM: NUMBER OF ATOMS
1473
ITEM: BOX BOUNDS
1.0317460317460316 110.39682539682539
1.0317460317460316 87.28571428571428
2.5 48.0
ITEM: ATOMS id x y z
1	88.960	39.359	30.508
2	69.558	37.186	30.349
3	93.775	30.896	31.504
4	75.236	26.684	33.388
5	52.706	17.278	32.975
6	39.809	14.853	29.589
7	59.373	13.698	34.402
9	19.209	79.721	35.194
10	69.975	82.920	30.458
11	91.274	78.305	29.921
12	98.669	76.727	34.037
13	58.516	59.942	32.356
14	25.939	54.371	31.943
16	2.256	38.804	32.370
17	70.824	37.597	24.910
18	109.353	36.009	33.691
20	76.380	35.238	36.690
21	49.340	38.888	29.226
23	87.761	53.243	34.627
24	25.715	71.876	31.436
25	51.910	60.576	29.886
26	81.944	58.198	37.431
27	13.895	48.370	31.412
28	60.782	45.235	31.148
29	107.089	41.632	36.394
30	72.096	32.389	30.025
31	10.628	28.958	36.195
32	20.440	15.250	33.087
33	45.188	18.270	34.571
34	10.746	2.497	34.044
37	104.123	81.647	30.029
38	33.456	84.596	32.800
39	41.869	81.756	34.497
41	37.175	60.441	32.570
42	41.255	53.524	34.444
43	64.782	57.594	31.833
44	26.746	5.083	32.810
45	96.279	14.776	33.974
46	80.982	4.543	29.188
47	61.600	77.242	31.074
48	74.898	81.028	31.573
50	32.655	73.427	28.355
52	35.035	72.494	33.542
53	65.177	68.320	26.905
54	94.672	69.705	27.884
56	29.920	61.502	26.018
58	19.085	57.025	29.093
59	55.538	44.507	26.551
60	40.408	35.327	27.763
61	48.135	29.142	30.751
63	90.485	19.601	30.046
64	38.059	24.919	30.474
65	12.874	15.736	31.646
66	63.890	19.109	25.609
67	6.306	83.175	27.491
68	73.576	51.222	30.132
69	55.622	76.187	32.432
70	84.183	36.758	31.251
71	67.356	41.980	27.633
72	12.573	75.657	30.501
73	109.409	73.347	31.076
74	45.452	60.203	30.328
75	101.933	29.207	27.986
76	79.118	21.849	34.624
77	51.512	11.185	33.864
78	12.061	11.756	27.036
79	29.525	8.644	28.458
80	54.134	8.410	28.407
81	42.106	40.652	30.763
82	78.811	9.435	31.914
83	101.103	8.613	34.012
84	94.204	4.575	28.301
85	63.471	4.764	27.518
87	85.508	77.056	25.028
88	105.108	70.287	25.993
89	99.892	67.122	28.356
90	67.334	63.492	31.468
91	16.107	52.668	28.986
92	71.600	10.717	33.068
93	75.453	5.114	29.645
94	26.578	10.898	34.509
95	79.069	13.737	34.215
96	47.205	25.615	37.169
97	89.396	25.174	32.150
98	70.105	19.740	37.460
99	65.141	22.663	36.911
100	95.844	19.996	37.001
101	76.344	17.499	38.237
102	35.420	15.100	35.941
103	14.323	11.204	34.430
104	94.007	6.203	39.562
105	104.986	30.937	32.847
106	14.724	5.363	35.599
108	12.831	82.827	31.970
109	77.738	75.700	35.982
110	62.468	70.039	31.949
111	18.332	74.516	31.142
112	36.669	67.382	33.030
113	14.945	55.434	35.632
115	87.369	47.715	33.760
116	67.282	7.523	35.914
117	26.017	44.392	35.306
118	78.789	31.496	31.651
119	96.051	36.075	33.421
120	92.584	45.876	33.052
121	11.374	36.269	32.829
122	55.465	28.428	34.610
123	85.745	32.555	36.604
124	28.666	27.192	37.391
125	33.697	24.429	39.461
126	14.806	15.171	40.488
127	44.831	4.444	34.066
129	48.877	34.853	35.685
131	86.153	76.469	38.096
132	69.133	72.728	32.224
133	40.330	72.210	35.257
134	92.662	73.559	32.015
135	6.709	73.164	34.313
136	31.709	61.780	32.649
137	9.531	63.057	31.156
138	52.006	53.530	32.173
139	50.352	46.049	29.494
140	64.278	84.689	34.786
141	38.813	84.390	30.070
142	58.038	31.771	30.994
143	86.249	19.348	33.997
144	47.966	8.342	38.065
145	4.599	5.450	34.998
147	95.949	82.284	32.412
148	84.653	71.661	34.000
149	48.951	73.147	31.403
150	78.527	63.026	33.047
151	42.797	65.154	31.410
152	17.762	65.755	30.035
153	24.671	28.317	31.395
154	53.885	65.401	31.009
155	39.767	48.920	32.304
156	34.621	45.440	28.919
157	32.008	22.460	34.384
158	63.316	28.493	29.969
159	41.254	27.073	35.414
161	12.692	24.820	31.888
162	102.779	20.306	33.410
163	24.580	21.127	32.910
164	88.499	44.932	28.064
166	31.073	34.561	33.088
167	99.988	40.464	29.282
168	97.930	12.823	40.516
169	91.005	10.583	34.438
170	84.620	7.712	33.143
172	102.386	62.819	32.495
173	33.676	48.538	36.926
175	72.100	46.776	35.972
176	19.941	47.256	33.406
177	26.979	39.468	31.084
178	18.698	30.757	37.435
179	88.997	82.318	33.688
180	73.392	64.125	35.719
184	4.423	59.062	34.895
185	100.024	55.971	34.555
186	8.965	48.666	35.161
187	73.315	44.571	29.049
188	30.102	17.608	33.366
189	80.295	44.393	32.677
191	43.321	75.012	29.426
193	58.291	82.473	27.180
194	98.736	79.729	27.831
196	56.261	45.505	19.694
197	99.010	44.761	24.910
198	61.965	42.839	25.751
199	42.877	45.549	20.518
200	63.128	34.763	24.381
201	13.727	21.577	27.537
202	56.377	13.430	27.493
203	30.629	14.883	26.422
205	11.371	4.259	28.769
206	87.340	81.714	27.217
207	104.603	63.293	25.173
208	13.703	61.453	21.593
209	52.721	54.946	24.945
210	34.991	47.220	24.112
211	31.541	3.997	23.816
212	67.608	8.005	29.226
213	36.086	11.001	26.849
214	95.329	9.327	28.534
215	51.898	34.815	25.996
216	93.864	18.293	24.323
218	48.927	77.050	27.181
219	16.804	82.947	28.436
221	76.141	77.053	27.749
222	15.697	76.815	24.535
223	69.638	73.989	25.945
224	93.302	44.302	24.185
225	78.114	68.770	25.602
226	71.235	62.843	26.424
227	100.877	60.837	20.614
228	11.948	57.736	27.924
229	21.165	47.680	26.555
230	106.867	45.688	29.225
231	15.184	41.352	28.294
232	104.405	35.376	28.902
233	7.505	22.543	28.954
234	73.288	11.362	24.913
235	31.263	71.121	22.495
236	5.495	41.610	25.779
237	79.466	35.201	26.001
238	22.104	35.360	28.333
239	4.188	12.278	23.758
240	106.894	7.576	24.306
241	73.176	83.021	24.504
242	104.763	78.247	22.889
243	86.549	82.272	15.630
244	45.164	81.776	29.042
245	25.399	68.066	26.593
246	44.175	57.624	22.720
247	69.420	50.810	24.163
248	89.458	13.933	24.615
250	68.315	34.079	21.624
251	32.963	26.887	24.968
252	51.636	24.679	31.557
253	70.011	19.488	26.677
254	81.616	16.733	29.001
255	86.440	20.022	23.511
256	98.898	16.109	27.322
257	44.444	15.663	27.072
258	67.684	9.710	23.689
259	35.308	44.091	16.634
260	74.708	29.838	23.125
262	40.749	24.651	23.963
263	78.258	27.457	28.383
264	92.568	25.856	27.772
265	67.028	23.879	25.649
266	47.046	20.557	26.149
267	28.618	22.314	27.329
268	20.865	86.612	25.748
269	107.300	84.463	23.890
270	65.459	81.721	21.541
271	48.256	71.039	26.015
272	52.108	20.099	27.367
273	19.953	71.616	26.784
275	49.025	65.908	20.734
276	66.636	58.212	24.027
277	28.802	49.680	26.130
278	74.100	50.847	21.262
279	84.970	36.513	24.860
280	38.068	38.738	24.098
281	48.654	30.731	22.225
282	57.291	23.468	26.887
283	9.469	71.036	28.771
284	75.740	39.623	27.979
285	78.193	48.384	24.370
286	55.143	50.280	22.690
287	91.823	31.778	23.549
288	15.863	29.924	30.345
289	100.731	26.467	33.130
290	22.388	23.906	27.552
291	45.882	9.601	29.160
292	34.130	80.837	27.567
293	53.134	67.320	24.893
294	37.159	62.157	27.029
295	83.862	50.763	28.612
296	96.771	36.161	26.291
297	81.090	42.900	25.982
298	40.713	29.448	28.169
299	84.074	31.667	29.496
300	84.103	25.097	28.900
301	44.347	23.464	29.581
302	98.167	21.887	30.956
303	106.302	17.271	26.221
304	57.699	17.048	24.327
305	75.060	15.759	29.489
306	22.444	16.759	27.538
307	61.240	27.701	23.785
308	6.809	16.799	29.287
309	15.863	35.427	28.669
310	31.214	39.159	26.342
312	89.138	71.041	29.168
313	13.083	69.759	33.101
314	40.246	61.834	22.289
316	64.967	49.349	31.592
317	17.600	42.057	33.422
318	59.322	37.219	28.977
319	58.277	19.501	33.573
320	94.593	41.539	29.916
321	72.412	24.420	29.064
322	5.478	2.208	28.350
325	55.753	75.920	26.362
326	60.127	64.672	28.547
327	5.198	58.719	28.994
328	34.018	54.555	28.638
329	57.147	50.486	28.134
330	45.022	45.933	27.315
331	62.617	22.776	31.595
332	82.502	78.762	31.970
333	66.123	12.999	27.816
335	77.019	54.865	29.126
336	8.891	53.651	29.577
337	9.986	44.508	30.914
338	27.268	35.934	25.041
339	5.744	27.223	31.479
340	34.238	20.081	26.056
341	107.605	24.925	28.924
342	39.527	6.202	29.601
344	107.489	56.930	26.549
346	26.930	83.063	26.468
348	38.935	68.770	23.942
349	92.943	63.956	28.380
350	17.685	61.356	24.845
352	61.506	56.874	26.506
353	41.626	55.826	29.496
354	98.441	51.443	26.632
356	17.621	6.586	27.536
357	72.677	55.434	25.448
358	14.707	66.330	25.470
359	23.846	77.864	32.081
360	35.967	70.166	19.110
361	21.567	63.343	28.906
362	80.782	59.062	27.800
363	46.223	54.097	27.016
364	48.681	46.604	22.310
365	24.147	44.104	29.705
366	109.265	40.455	29.483
367	33.373	33.714	25.951
368	101.397	57.309	28.952
369	100.185	39.139	36.147
370	89.443	27.983	19.943
371	32.104	27.809	31.992
372	18.004	20.011	30.814
373	60.921	9.693	26.983
374	23.224	9.458	28.968
375	84.806	5.148	24.256
378	44.377	66.494	25.196
379	9.035	31.595	27.633
380	97.871	47.071	33.402
381	29.465	50.039	33.773
385	67.845	76.820	46.858
386	10.207	72.241	44.197
387	88.161	66.625	45.357
388	88.792	59.349	43.183
389	53.210	56.474	42.717
391	90.087	52.163	44.535
394	90.406	44.903	42.147
395	55.591	49.270	45.720
396	43.997	42.763	43.413
397	54.094	39.010	42.323
398	45.103	24.367	45.616
399	65.134	19.586	43.375
400	60.523	16.474	44.806
401	77.330	8.927	45.915
402	51.921	9.433	46.132
403	26.882	28.078	43.977
405	29.924	47.701	45.612
410	76.921	44.552	42.192
411	91.120	31.462	40.251
412	11.910	19.071	41.842
413	86.786	19.376	41.390
414	73.230	18.064	44.569
415	98.953	13.618	46.407
416	29.477	14.726	43.354
417	108.136	74.687	43.565
418	43.600	68.334	43.238
419	54.223	67.447	39.041
422	45.162	49.908	41.426
423	23.224	59.806	38.730
424	17.235	53.678	42.748
426	80.031	13.843	42.543
427	63.678	9.726	46.152
428	71.677	4.842	37.606
429	47.242	81.295	45.555
430	16.697	72.843	43.176
431	101.612	69.417	43.979
432	59.734	61.267	39.282
433	13.764	60.763	43.844
434	92.486	38.364	46.571
435	47.848	38.911	46.224
436	14.387	35.841	45.612
437	25.736	34.062	41.516
439	55.760	80.409	40.782
440	85.779	34.159	44.770
441	10.924	25.223	42.704
443	87.072	5.280	45.198
445	36.842	3.109	41.802
446	70.309	81.093	38.123
447	7.832	76.268	40.530
448	68.700	75.228	37.672
449	75.509	56.018	39.464
450	55.729	27.792	41.524
452	27.408	1.671	40.554
453	74.652	23.953	38.445
454	19.250	79.348	45.408
455	40.391	71.713	40.506
456	51.070	78.649	42.933
457	68.727	69.142	45.594
458	22.537	67.062	41.025
460	46.637	63.651	44.381
461	97.414	63.276	43.065
462	32.536	60.639	44.946
463	8.801	12.046	44.024
464	97.987	54.972	41.508
465	103.245	44.009	40.495
466	11.986	45.920	39.400
467	45.612	35.309	43.201
468	96.877	30.552	40.397
469	49.099	29.985	45.525
471	73.172	28.599	41.994
473	21.723	21.030	41.322
474	7.034	50.643	43.781
475	23.428	75.586	45.642
476	65.842	85.326	44.514
477	103.331	84.409	43.764
479	59.618	35.794	42.916
488	86.390	26.041	41.166
494	4.493	72.436	43.082
495	28.872	64.284	44.129
497	80.627	52.768	43.006
498	100.020	24.083	46.171
499	100.294	48.902	45.692
500	66.404	53.148	41.469
501	44.189	57.293	43.386
504	92.970	57.639	39.864
514	39.530	8.545	44.898
517	89.966	80.350	44.620
518	61.790	74.693	42.591
521	29.491	70.167	42.658
522	41.020	17.100	42.691
523	27.461	56.152	41.095
525	2.803	40.619	44.638
526	83.082	18.500	47.637
528	93.930	9.961	44.371
530	59.121	2.820	45.945
531	28.872	84.235	44.651
532	99.166	81.840	40.051
533	35.958	67.335	41.847
534	101.056	65.618	38.561
535	36.499	20.086	44.960
536	18.766	62.306	41.650
537	105.529	39.805	44.382
539	28.759	42.373	43.365
540	84.678	25.314	46.359
544	68.689	6.747	44.901
546	58.221	53.463	42.148
550	106.470	33.059	45.562
551	51.242	29.922	38.721
552	4.963	19.926	43.438
553	20.245	15.528	44.506
555	107.298	3.923	44.762
556	48.409	86.982	40.902
557	72.552	75.449	45.160
558	29.908	78.391	41.100
561	64.272	63.599	41.539
562	14.643	66.566	42.431
563	73.242	50.939	39.591
565	23.255	45.922	42.611
566	9.184	39.302	41.965
569	40.438	36.302	47.032
570	33.860	74.337	41.474
571	94.130	51.914	34.577
573	65.758	41.879	40.877
574	5.778	26.111	38.802
575	5.890	12.934	35.085
576	59.115	7.743	34.522
577	87.292	13.673	36.596
578	50.865	5.435	33.004
580	26.619	73.437	39.484
582	82.114	55.453	32.483
583	44.651	31.608	38.720
584	36.157	54.481	35.572
585	2.501	50.358	34.515
586	94.007	42.220	36.603
587	29.485	39.110	37.267
588	80.465	32.557	37.559
589	84.534	25.238	35.186
591	55.361	18.085	38.962
592	74.544	11.731	41.867
593	60.254	13.248	40.093
594	26.392	50.209	41.077
595	24.682	10.277	40.881
596	38.545	33.747	41.221
597	65.959	44.187	33.297
598	7.643	16.934	38.792
599	82.521	3.943	37.034
600	91.309	81.682	38.692
601	103.428	86.380	35.268
603	87.918	69.210	38.098
604	19.309	63.030	35.976
605	53.289	62.285	35.622
606	91.678	37.086	37.500
607	7.413	42.188	36.082
608	61.984	24.959	41.079
609	33.512	17.621	40.181
610	32.687	6.034	38.725
611	10.648	8.463	39.074
612	61.380	5.659	40.861
613	19.736	84.558	39.461
615	62.776	65.302	35.147
616	34.820	59.818	38.023
617	51.868	50.027	39.306
618	45.074	21.017	40.610
619	11.612	19.204	36.411
620	20.987	9.934	36.617
621	57.381	83.272	34.993
623	16.825	69.722	37.050
624	66.953	68.787	35.541
626	24.992	60.761	33.468
627	94.347	60.784	34.450
628	9.954	58.929	38.322
629	86.607	42.486	35.417
630	36.315	41.381	33.636
631	47.668	79.771	33.030
632	47.064	40.090	38.801
633	27.785	68.525	35.351
634	98.249	74.539	40.619
635	29.173	66.535	30.473
636	90.646	68.105	33.546
637	4.842	67.429	32.659
638	97.171	67.461	35.576
639	74.485	57.431	34.009
641	57.604	49.169	34.625
642	28.096	80.021	34.037
644	35.813	8.593	35.036
645	106.768	9.965	36.834
647	24.914	80.770	40.463
650	46.220	74.992	37.596
652	47.284	57.472	35.025
653	68.427	59.424	36.617
654	20.368	54.814	36.064
655	87.729	7.049	39.381
656	56.782	45.040	39.997
657	75.324	35.913	31.495
658	38.588	32.280	33.378
659	63.241	30.744	41.214
660	64.523	30.962	35.592
661	100.100	32.408	36.061
662	80.304	20.346	41.994
663	64.527	16.343	31.924
664	43.370	12.504	34.532
665	67.906	14.530	36.057
666	63.968	36.284	33.760
667	51.526	4.255	22.893
668	102.032	28.453	38.137
669	15.226	39.356	38.328
670	5.963	79.229	33.151
671	103.786	76.958	36.911
672	58.140	71.211	37.651
673	25.053	69.150	45.368
674	74.593	68.211	41.989
675	85.656	64.122	31.577
676	2.419	69.213	38.809
677	8.365	67.535	40.692
678	27.249	63.197	38.351
679	103.370	78.013	43.940
680	4.781	63.582	37.990
681	35.481	41.203	39.608
682	33.585	27.894	45.822
683	79.234	24.897	42.437
684	51.618	13.857	40.626
685	40.971	85.978	39.988
686	92.334	75.677	36.685
687	20.233	74.033	38.147
688	75.164	62.318	44.096
689	87.428	63.401	39.551
690	67.102	48.109	43.563
691	41.844	59.509	36.490
692	60.654	85.466	42.437
694	84.499	37.803	38.569
695	47.130	13.483	45.942
696	13.094	82.283	39.889
699	78.310	73.873	42.966
700	33.739	77.715	35.493
701	80.134	67.703	40.010
702	106.224	51.785	42.351
704	37.795	53.866	42.401
705	21.325	40.003	39.072
706	7.240	33.270	40.916
707	92.838	26.872	36.031
708	50.854	22.683	44.627
709	92.208	14.592	41.568
710	38.366	20.535	36.082
711	66.115	13.203	42.594
712	16.307	8.563	42.731
714	51.537	43.406	37.186
715	21.608	29.379	41.607
716	33.025	50.806	41.671
717	98.848	49.198	38.692
718	73.058	40.780	36.034
719	60.992	40.619	36.105
720	55.502	37.463	35.664
721	75.802	39.078	44.008
722	67.538	35.868	38.668
723	79.828	30.358	45.170
724	40.583	25.800	40.968
725	58.870	21.507	38.574
726	19.135	18.734	37.210
727	61.984	50.434	38.237
729	42.190	79.104	39.599
730	54.552	77.537	37.511
731	53.224	70.708	33.659
732	12.999	64.485	37.001
733	77.395	47.773	36.589
734	46.608	47.552	33.437
735	91.951	48.808	39.685
736	97.558	37.842	42.043
737	72.449	31.908	38.510
739	39.303	47.955	40.497
740	47.486	63.749	37.647
742	86.001	52.954	40.149
743	41.971	36.657	37.487
745	105.933	35.297	39.900
746	27.624	20.492	39.612
748	32.743	9.578	43.206
750	21.051	3.891	38.810
752	68.742	52.211	35.881
753	17.459	46.150	39.483
754	108.978	47.284	43.642
755	109.126	28.768	40.921
756	15.525	29.819	42.383
757	89.977	21.886	37.081
758	45.179	7.771	43.363
759	77.551	6.922	39.280
760	53.834	6.552	38.891
761	5.484	82.455	39.342
762	11.898	52.344	41.310
763	76.977	6.634	23.889
764	42.876	44.149	35.087
766	78.821	18.387	10.563
767	29.317	16.382	8.336
768	93.640	10.726	6.131
769	36.943	6.974	10.417
771	29.752	68.156	6.239
772	23.853	71.912	10.076
773	54.483	60.046	4.328
774	84.346	56.080	10.591
775	70.938	50.134	7.209
776	41.071	46.968	7.440
777	109.001	37.939	8.897
778	74.678	26.865	4.537
779	71.234	8.609	3.424
780	9.934	8.623	10.649
784	66.850	68.010	11.216
785	9.722	16.009	11.972
787	39.418	34.207	7.290
788	88.773	34.345	5.512
789	21.015	54.977	8.595
790	88.762	43.349	5.083
791	5.073	49.946	3.841
792	104.728	28.788	8.605
793	108.078	24.140	7.914
794	15.691	25.395	13.013
795	39.398	20.437	12.811
796	26.645	21.314	9.584
797	2.304	16.831	7.305
798	107.044	61.582	8.113
799	52.780	10.690	11.986
801	75.215	77.565	6.144
802	17.541	66.156	7.485
803	71.842	55.345	10.451
804	64.465	54.015	7.531
805	47.398	48.325	5.535
807	75.185	42.724	10.466
808	22.137	35.018	11.143
809	75.124	9.848	12.637
810	20.451	61.582	7.405
811	37.192	59.439	6.568
812	93.376	37.246	7.514
814	78.557	27.916	11.077
815	101.904	15.596	8.526
816	77.805	4.936	9.838
817	70.756	81.688	6.744
819	104.396	79.743	6.558
820	17.037	71.341	5.023
821	77.904	67.435	9.094
822	64.822	30.110	10.396
823	62.067	68.589	5.373
824	18.244	51.227	5.752
825	53.063	49.510	7.322
827	4.446	38.514	4.561
828	69.907	37.488	7.555
829	44.984	38.011	6.112
830	30.937	33.339	8.057
831	16.909	31.323	6.638
832	33.594	27.732	6.390
833	40.123	64.496	5.385
834	10.150	48.975	6.584
835	81.962	36.293	7.573
836	14.581	37.846	11.536
837	9.364	40.114	9.340
838	52.463	40.002	4.567
839	109.140	29.845	4.360
840	95.910	31.476	7.123
841	48.700	29.054	6.679
842	6.560	22.300	8.729
843	15.758	18.219	14.265
844	42.426	17.908	8.054
845	73.035	17.904	8.648
846	70.389	33.195	3.644
847	97.613	4.731	8.453
849	34.719	72.796	6.049
850	70.284	67.736	6.657
851	4.340	63.335	6.931
852	101.500	59.172	3.563
853	8.462	55.942	6.633
854	48.434	55.843	3.630
855	19.901	45.720	10.453
858	67.017	53.645	12.525
859	42.210	65.243	10.746
861	32.534	55.831	11.106
862	61.988	56.286	11.850
863	99.847	52.748	15.308
864	14.451	52.094	10.676
865	48.812	41.719	9.261
866	17.986	31.389	13.631
867	70.159	6.168	9.061
868	55.356	5.800	8.081
870	95.414	54.434	10.964
871	34.785	83.905	6.529
872	27.048	56.326	9.520
873	108.673	48.330	12.388
874	90.396	42.208	12.914
875	79.831	48.240	11.922
876	3.707	45.239	9.726
877	36.656	40.631	9.727
878	26.679	29.797	8.915
879	49.956	34.042	7.676
880	48.739	26.165	15.876
881	75.260	60.872	8.397
882	54.207	28.072	15.340
883	65.114	60.696	7.869
884	31.018	61.714	10.102
885	94.653	45.904	9.510
886	53.389	56.033	10.295
887	103.673	46.692	9.623
888	108.026	30.861	13.317
889	42.690	24.014	8.285
890	92.910	23.750	14.507
891	64.654	22.658	11.297
892	71.755	23.931	9.977
893	59.864	18.992	13.025
894	55.321	69.374	10.469
895	79.975	14.196	14.521
896	100.541	12.720	17.417
897	73.444	4.178	13.579
898	92.583	84.153	12.146
900	76.088	81.285	13.321
901	63.929	82.244	9.426
902	57.289	73.539	12.866
903	96.692	63.966	10.981
904	90.978	65.701	9.307
905	43.125	11.096	10.084
906	30.719	25.634	10.761
909	62.784	27.041	15.060
910	48.981	23.119	9.416
911	94.836	15.168	10.871
912	14.315	11.850	14.190
913	41.208	3.210	12.578
914	107.946	6.625	13.344
916	11.100	63.861	6.913
917	82.857	61.906	6.809
918	64.149	40.340	6.115
919	28.899	48.694	7.524
920	26.467	43.766	8.454
921	65.341	48.852	7.836
922	55.329	36.677	13.377
923	85.502	16.886	9.925
924	89.858	7.264	12.083
925	22.079	9.876	6.828
926	27.816	3.491	8.376
928	13.028	86.743	7.974
929	13.287	45.560	10.463
930	68.810	15.575	14.760
931	102.507	38.595	11.606
932	84.454	50.374	10.876
933	39.912	84.392	7.587
935	15.055	59.864	7.689
936	77.466	47.118	6.233
937	76.229	34.428	6.632
938	35.991	25.875	15.067
939	33.949	12.762	8.068
940	48.518	6.413	8.200
941	67.400	9.888	12.643
942	54.969	43.657	9.381
944	56.868	81.163	11.171
945	108.871	83.305	13.911
946	99.896	77.656	12.273
947	19.643	75.660	8.325
948	68.800	76.807	11.850
949	40.398	73.302	6.880
951	12.596	73.724	7.781
952	46.959	59.160	9.403
953	24.715	82.149	6.025
954	33.895	20.262	7.263
955	14.941	12.891	7.794
956	83.033	12.503	6.827
957	77.765	58.861	3.091
962	13.196	23.191	8.228
963	55.227	23.420	7.491
964	22.262	18.203	5.285
965	97.231	16.334	4.019
973	25.015	76.033	6.187
981	46.039	21.777	4.020
985	102.051	83.984	2.214
986	55.828	78.390	4.083
987	6.972	76.421	5.768
990	31.546	62.803	3.097
992	8.652	43.834	3.029
995	78.396	9.959	4.463
1000	99.149	58.884	10.413
1010	105.504	52.370	3.047
1017	6.208	33.387	4.720
1023	63.299	4.026	20.575
1026	27.231	44.196	2.972
1029	26.016	35.721	4.973
1032	28.708	24.484	2.847
1042	77.017	41.801	5.030
1045	21.889	29.084	3.409
1050	1.023	66.492	10.433
1051	83.048	24.571	4.463
1054	30.236	55.625	4.112
1055	69.773	54.880	5.434
1056	58.478	49.054	5.458
1057	82.717	42.921	9.486
1060	29.966	39.403	7.731
1061	100.921	33.769	7.005
1062	23.185	54.974	3.462
1063	20.364	37.470	5.605
1065	19.663	21.677	9.263
1066	103.477	21.581	8.928
1067	60.224	26.677	8.429
1068	46.232	5.512	3.222
1071	17.774	81.224	9.507
1073	58.453	34.537	4.087
1075	45.842	69.243	6.610
1076	97.014	71.347	10.170
1077	49.650	11.626	6.939
1078	62.224	7.210	9.444
1079	29.970	79.747	7.160
1080	81.276	69.857	5.436
1081	92.951	70.562	5.170
1082	51.400	74.035	8.284
1084	22.632	68.072	5.377
1085	58.286	54.933	6.392
1086	91.014	57.978	8.650
1088	23.419	49.555	7.222
1089	41.594	29.322	6.070
1090	66.555	21.171	6.569
1091	10.545	18.920	4.940
1092	71.101	13.609	7.462
1093	50.353	17.328	10.271
1094	16.839	6.967	12.987
1095	20.921	3.040	4.375
1097	99.472	48.614	4.585
1100	87.771	58.827	2.310
1101	70.068	41.454	3.366
1102	87.776	39.137	8.800
1103	8.463	28.404	7.300
1104	27.718	10.084	3.162
1105	12.203	4.249	6.261
1106	92.364	3.565	4.837
1108	61.193	80.828	5.844
1111	98.031	75.087	5.777
1112	74.397	64.791	3.992
1116	58.820	61.894	6.678
1117	104.738	53.214	9.726
1118	88.998	51.072	4.416
1120	33.028	43.229	3.018
1122	56.495	67.116	4.581
1124	104.621	69.283	5.460
1125	20.374	42.917	3.588
1128	68.774	27.742	6.150
1129	91.636	25.286	7.261
1131	97.201	22.060	9.445
1134	49.425	61.905	5.403
1135	40.731	9.882	5.516
1136	3.650	7.527	7.031
1137	58.143	5.755	3.795
1139	103.361	6.705	7.833
1145	108.908	11.550	5.875
1146	48.773	71.455	12.948
1148	60.473	74.436	6.670
1149	87.919	8.439	18.409
1150	33.646	79.290	21.108
1151	54.197	68.760	17.185
1152	23.509	68.223	19.928
1153	87.990	61.166	12.454
1154	64.206	51.188	24.919
1155	63.425	45.373	19.481
1156	99.488	40.493	18.007
1157	67.982	40.694	18.808
1158	81.875	29.333	22.925
1159	15.783	17.363	24.239
1160	5.295	20.779	21.863
1161	55.022	20.877	20.555
1162	76.845	16.591	21.918
1163	36.399	16.326	18.412
1164	26.759	19.473	15.689
1165	71.157	8.154	17.678
1166	26.285	4.247	20.118
1167	82.902	81.193	19.725
1168	36.657	9.674	18.973
1169	95.749	15.789	19.940
1170	66.657	26.770	20.965
1171	43.841	38.590	16.920
1172	24.872	83.089	19.531
1173	108.690	76.842	14.883
1174	15.809	72.707	19.054
1175	82.864	65.349	18.742
1176	75.800	60.039	21.651
1177	6.584	49.192	25.550
1178	44.770	49.869	15.614
1179	24.234	37.596	20.517
1181	93.605	71.931	15.348
1182	38.641	14.198	23.688
1184	11.852	77.929	19.130
1185	102.167	66.778	21.272
1186	34.041	53.602	22.020
1187	18.182	48.149	21.615
1188	103.244	47.160	20.667
1189	95.031	44.468	15.152
1190	17.911	41.234	21.807
1191	79.684	38.851	19.198
1192	19.696	2.992	21.866
1193	74.643	77.568	22.692
1194	27.169	70.868	15.985
1195	71.796	63.909	21.170
1198	64.095	21.417	19.208
1199	80.635	11.612	21.314
1201	31.688	66.881	16.525
1203	7.825	62.340	19.334
1204	107.447	60.733	18.390
1205	79.659	32.567	18.870
1206	23.050	55.024	24.692
1207	87.343	43.937	22.869
1208	98.073	34.088	21.048
1209	89.757	33.373	18.083
1210	5.738	33.751	16.608
1211	30.193	34.076	20.003
1212	45.783	25.852	24.508
1213	94.731	28.960	18.290
1214	26.871	24.705	19.561
1215	19.320	19.008	19.487
1216	104.858	44.007	15.749
1217	78.835	81.147	25.017
1218	19.799	33.792	21.514
1219	36.805	37.368	18.158
1220	7.956	56.732	22.099
1221	39.949	52.579	18.985
1222	85.295	39.906	20.011
1223	7.990	37.606	20.502
1224	9.625	26.216	15.966
1225	103.258	25.786	18.926
1226	75.944	23.681	22.006
1227	71.272	23.086	19.810
1228	95.085	22.139	18.984
1229	52.373	39.150	20.913
1230	52.699	14.253	21.777
1231	44.574	10.581	19.429
1232	28.819	7.487	15.339
1233	22.194	3.938	15.422
1234	104.000	81.913	18.483
1235	15.881	82.119	22.365
1236	7.274	73.414	20.898
1237	37.506	57.829	19.915
1239	2.579	40.605	20.684
1240	102.372	12.066	22.581
1241	53.752	80.118	21.239
1242	33.183	85.383	22.431
1243	18.791	12.299	26.081
1244	30.547	45.470	19.180
1245	46.345	40.068	23.972
1246	14.005	32.136	21.410
1248	100.789	24.386	24.352
1249	34.209	22.229	19.458
1250	23.099	13.354	22.007
1252	48.913	83.416	22.402
1253	41.587	57.231	15.517
1254	72.234	69.585	21.522
1255	85.102	55.806	23.115
1256	79.966	55.697	22.609
1257	91.116	56.754	19.812
1258	48.557	52.639	21.491
1259	12.515	52.643	25.277
1260	24.424	44.832	22.798
1261	6.397	44.405	19.994
1262	12.246	37.395	23.902
1265	23.723	28.821	24.786
1266	8.454	66.403	24.449
1267	100.179	72.626	24.336
1268	36.430	65.163	9.126
1269	86.630	71.381	21.614
1270	57.444	62.843	22.473
1271	65.404	67.983	21.194
1272	97.076	51.607	20.231
1274	40.116	50.236	25.706
1275	88.774	7.793	27.075
1276	45.042	6.161	24.180
1277	80.771	73.721	21.826
1278	7.027	8.204	26.518
1279	95.989	66.750	22.668
1280	58.197	38.489	23.458
1281	103.308	33.211	23.853
1282	41.760	33.669	20.986
1283	9.700	16.157	23.083
1284	61.345	13.952	19.993
1286	10.017	83.677	20.732
1287	6.086	76.199	26.441
1288	26.282	76.881	21.304
1289	1.974	17.376	13.207
1290	16.977	24.913	23.897
1291	43.422	18.112	21.348
1294	47.522	76.530	20.603
1295	62.565	76.146	24.979
1296	39.702	78.129	21.250
1298	100.486	65.190	16.810
1299	80.274	62.357	22.138
1300	62.515	59.236	19.936
1302	54.414	60.958	18.337
1303	62.465	39.463	20.866
1304	108.528	44.388	21.180
1305	103.574	41.429	24.382
1306	62.404	33.245	18.902
1307	37.326	28.939	21.559
1308	57.022	31.912	24.146
1309	7.032	27.157	24.582
1310	81.324	22.021	23.989
1311	28.862	17.256	20.635
1312	10.518	45.293	23.556
1313	85.141	24.507	19.993
1314	92.500	5.407	22.294
1315	51.290	47.288	18.099
1316	82.245	17.280	21.044
1317	23.442	21.029	22.576
1318	107.398	15.084	17.510
1319	55.381	9.442	21.923
1321	58.245	8.202	16.425
1322	46.651	5.011	19.314
1323	23.699	8.803	18.876
1324	56.531	3.399	21.970
1325	70.457	43.816	22.597
1326	8.937	5.039	22.462
1327	20.507	77.271	22.391
1328	69.011	78.938	27.244
1329	12.889	71.041	23.927
1331	12.090	66.749	20.245
1332	96.712	57.983	26.531
1333	83.619	55.156	16.959
1334	91.971	51.296	27.001
1335	83.315	49.652	18.650
1337	68.978	14.822	21.411
1338	37.225	76.837	29.544
1339	65.576	8.710	18.287
1340	15.797	70.382	11.865
1341	19.030	61.289	13.818
1342	38.904	55.719	10.674
1344	11.748	55.819	15.426
1345	5.304	54.400	14.141
1346	27.878	51.746	16.405
1347	92.546	38.463	17.068
1348	6.741	41.765	14.338
1349	76.275	39.521	14.851
1350	48.746	36.090	16.701
1351	35.554	31.757	12.281
1352	76.200	27.457	17.130
1353	108.920	22.157	17.896
1354	88.966	18.583	15.193
1355	59.249	20.503	5.547
1358	6.421	86.946	9.921
1359	76.563	74.478	11.426
1360	12.295	79.029	13.469
1361	22.138	80.900	14.964
1362	82.355	8.052	10.928
1363	41.710	31.535	15.942
1364	55.744	31.851	19.313
1365	6.512	20.843	15.539
1366	43.800	14.328	15.173
1367	105.255	12.476	12.509
1368	92.676	13.564	15.976
1369	33.660	3.501	15.944
1370	40.694	82.930	15.242
1371	81.174	78.517	12.375
1372	103.383	18.618	19.357
1373	87.894	77.232	19.422
1374	21.757	67.182	13.529
1375	72.360	60.265	14.712
1376	60.967	41.559	14.199
1377	108.678	39.315	14.967
1378	1.649	41.202	12.565
1379	25.988	33.235	14.535
1381	33.474	10.914	13.684
1382	6.775	15.084	16.662
1383	103.435	72.617	14.300
1384	7.895	74.540	11.536
1385	85.930	71.352	9.781
1386	108.650	73.553	9.833
1387	19.775	54.396	15.483
1388	61.683	48.958	14.576
1389	100.661	41.824	8.904
1390	43.799	40.870	11.171
1391	43.843	34.302	12.090
1392	63.367	36.619	13.637
1393	32.445	36.857	14.526
1394	81.069	29.635	5.974
1395	25.776	27.283	15.017
1396	11.183	60.327	11.826
1397	21.991	22.511	15.495
1398	4.531	12.638	12.035
1399	79.528	5.971	18.552
1400	25.124	10.235	11.513
1401	48.380	3.110	13.119
1403	46.745	79.742	8.329
1404	39.447	79.598	11.256
1405	27.056	76.818	11.518
1407	33.880	18.804	14.297
1408	16.156	36.528	17.981
1409	82.668	66.028	13.065
1411	43.640	71.254	14.886
1412	88.820	46.756	12.604
1413	44.204	53.613	9.867
1414	61.646	53.622	18.946
1415	47.022	46.733	11.574
1416	20.435	43.049	17.706
1417	88.611	29.635	10.624
1418	44.921	19.965	15.206
1420	33.004	77.612	11.465
1422	73.677	49.863	12.119
1423	69.050	43.999	10.818
1424	81.548	32.746	12.446
1425	84.410	27.842	14.197
1426	8.666	31.675	11.652
1427	72.371	29.145	12.130
1428	87.010	22.976	12.214
1429	56.813	16.554	9.399
1430	90.496	14.748	6.234
1431	78.144	55.165	11.774
1432	101.939	67.365	10.287
1435	73.739	19.717	14.652
1436	49.828	14.853	16.269
1437	72.544	80.959	18.527
1439	78.493	71.023	16.646
1440	56.015	52.190	17.590
1441	89.669	50.292	20.830
1442	8.534	49.589	12.678
1443	70.207	49.332	17.121
1444	48.955	42.197	16.176
1445	25.662	43.422	14.719
1446	74.788	14.464	16.972
1447	43.663	7.798	14.887
1448	11.271	85.832	14.047
1449	64.266	73.468	15.472
1450	40.900	76.846	16.545
1451	47.136	71.029	18.612
1452	20.375	60.094	19.362
1453	56.716	57.656	13.686
1454	107.351	55.896	14.566
1455	57.523	10.849	8.449
1456	75.495	55.602	17.644
1457	81.385	44.679	17.043
1459	80.686	1.919	21.009
1460	62.621	68.705	16.054
1462	59.858	84.637	19.111
1463	6.138	80.049	17.093
1464	49.529	82.765	16.424
1465	51.531	74.720	16.142
1466	35.202	63.038	21.419
1467	105.201	54.997	19.095
1468	34.608	50.201	13.642
1469	68.838	55.183	17.731
1470	50.853	50.412	12.840
1471	99.176	17.166	14.970
1472	108.574	8.243	18.460
1473	8.713	4.176	15.702
1475	36.604	71.946	13.915
1476	58.750	64.697	15.924
1477	17.078	66.180	17.602
1478	27.464	67.056	12.509
1479	22.965	49.159	17.017
1480	10.944	50.861	18.478
1482	86.757	36.909	13.441
1483	67.630	3.053	15.651
1484	100.301	3.740	18.327
1485	54.974	79.423	15.588
1486	2.245	73.554	14.939
1487	51.339	64.825	10.101
1488	46.754	63.514	15.047
1489	49.113	56.862	15.360
1490	79.156	51.871	15.862
1491	54.927	41.759	15.658
1492	51.735	5.489	16.465
1493	103.627	34.359	18.311
1494	13.282	20.973	20.471
1495	61.948	12.879	13.741
1496	86.964	14.254	18.115
1497	21.674	16.355	12.283
1498	30.465	82.698	15.312