ITEM: TIMESTEP
55.396481024486505
ITEM: NUMBER OF ATOMS
1464
ITEM: BOX BOUNDS
1.0317460317460316 110.39682539682539
1.0317460317460316 87.28571428571428
2.5 48.0
ITEM: ATOMS id x y z
1	89.465	38.969	29.693
2	68.472	37.437	30.532
3	93.034	31.972	31.775
4	74.591	27.533	32.772
5	52.399	17.209	33.031
6	39.637	14.955	30.565
7	59.057	13.491	33.629
9	19.299	80.080	34.809
10	70.324	82.920	31.491
11	92.003	78.553	29.057
12	99.035	76.984	34.023
13	58.631	59.832	32.019
14	25.951	55.173	32.472
16	2.672	38.653	32.581
17	71.327	37.776	24.438
18	109.295	37.242	33.431
20	76.790	35.663	35.429
21	48.682	39.232	29.827
23	87.317	53.820	33.902
24	25.622	71.482	31.059
25	51.574	60.905	29.920
26	82.102	58.813	37.358
27	14.735	47.737	31.808
28	61.198	45.222	31.201
29	107.210	41.825	37.031
30	70.527	31.587	30.343
31	11.348	29.834	36.618
32	20.445	15.337	33.997
33	44.044	18.414	34.615
34	11.095	1.553	34.649
37	104.722	81.559	29.683
38	32.728	84.777	33.152
39	41.765	82.232	34.497
41	38.117	60.301	32.477
42	41.373	53.219	35.099
43	64.130	57.433	31.567
44	26.644	4.575	32.513
45	97.351	14.283	35.106
46	80.436	3.190	29.296
47	62.398	77.142	30.601
48	74.807	80.684	32.486
50	31.794	74.068	27.488
52	34.463	72.387	33.567
53	65.430	69.148	26.116
54	95.857	69.938	27.994
56	29.341	60.693	26.803
58	18.477	56.207	28.981
59	55.091	45.250	27.090
60	40.560	35.422	26.850
61	49.075	29.390	29.892
63	91.410	19.811	30.853
64	38.091	24.316	30.280
65	12.795	15.496	30.564
66	63.432	18.333	24.690
67	6.306	83.051	28.304
68	74.247	50.145	29.624
69	55.180	75.858	32.416
70	83.428	38.267	30.452
71	67.887	42.129	26.887
72	11.477	75.326	30.395
73	110.069	73.990	31.362
74	45.086	60.172	29.883
75	100.850	30.509	29.604
76	78.566	22.998	34.782
77	51.644	11.812	32.884
78	12.713	11.496	27.137
79	29.423	9.399	28.009
80	54.640	8.158	28.054
81	42.414	40.766	30.004
82	79.297	8.731	31.827
83	100.929	9.548	34.058
84	93.032	4.286	27.680
85	63.666	4.602	28.067
88	106.099	70.003	26.916
89	100.665	67.150	28.924
90	67.778	63.559	30.591
91	16.977	51.797	28.678
92	73.025	11.038	32.570
93	74.504	5.717	29.041
94	27.172	10.489	34.644
95	80.087	13.630	34.070
96	47.406	25.416	37.066
97	89.222	24.174	33.329
98	69.994	19.732	36.181
99	64.106	23.199	35.326
100	95.942	20.183	37.320
101	76.592	16.137	38.051
102	34.601	14.046	36.776
103	14.695	11.052	35.284
104	92.828	6.830	40.415
105	105.539	32.689	33.449
106	15.484	5.156	35.928
108	13.629	83.620	31.684
109	77.572	75.827	35.720
110	62.582	71.376	32.418
111	17.392	74.249	31.574
112	36.400	68.019	32.817
113	14.679	54.929	35.898
115	87.087	47.794	33.987
116	66.762	7.781	36.136
117	26.498	43.379	35.573
118	78.542	31.580	31.816
119	95.587	36.931	34.133
120	92.611	45.278	33.419
121	10.884	36.204	33.360
122	55.657	27.850	34.935
123	84.845	32.654	35.627
124	28.912	25.871	36.959
125	33.947	25.219	39.862
126	14.235	14.988	39.321
127	43.994	4.497	33.380
129	48.037	35.352	35.351
131	86.621	76.938	37.687
132	70.313	73.044	33.128
133	40.692	71.937	34.919
134	93.426	73.970	31.957
135	5.930	74.252	33.812
136	31.953	61.963	33.425
137	8.830	63.203	31.335
138	52.603	54.021	31.390
139	50.874	47.335	29.948
140	63.911	84.547	34.528
141	38.168	86.175	30.091
142	58.056	31.777	31.531
143	86.428	18.989	34.598
144	48.506	8.339	37.426
145	5.581	5.481	34.583
147	95.816	83.268	31.510
148	85.357	71.288	33.603
149	49.462	71.362	31.167
150	78.343	62.979	34.035
151	41.721	65.241	31.387
152	17.272	65.943	29.949
153	24.400	27.577	31.675
154	53.127	65.849	31.221
155	39.638	49.006	31.370
156	33.995	46.327	29.233
157	32.607	22.619	34.691
158	62.593	28.443	29.726
159	41.984	27.266	36.493
161	12.510	25.830	31.900
162	102.935	19.182	34.863
163	25.204	19.829	32.852
164	88.216	45.046	27.989
166	30.572	34.218	32.883
167	100.850	41.438	29.157
168	97.577	11.431	40.998
169	91.185	11.532	33.868
170	84.314	8.180	34.459
172	102.311	62.826	33.114
173	32.522	47.872	36.602
175	70.622	47.444	35.928
176	20.632	46.968	33.109
177	27.791	39.748	31.160
178	17.996	30.873	37.227
179	88.505	82.898	34.569
180	73.024	64.128	34.913
184	3.823	59.094	35.093
185	100.788	55.826	34.875
186	8.140	48.070	34.725
187	73.002	45.309	29.409
188	30.800	17.087	33.063
189	80.411	45.191	32.674
191	44.340	74.023	29.593
193	57.958	83.057	27.082
194	99.432	80.010	27.660
196	56.246	44.916	19.900
197	98.896	45.440	24.983
198	60.743	42.591	26.907
199	43.772	45.703	20.657
200	62.870	34.093	24.693
201	14.011	21.529	27.411
202	55.107	13.618	27.846
203	30.626	15.393	24.878
205	11.421	4.188	29.169
206	87.901	81.891	26.788
207	105.214	63.720	25.525
208	13.033	60.411	21.342
209	51.885	55.216	25.626
210	34.217	46.713	23.938
211	31.627	4.966	23.589
212	67.581	8.092	28.572
213	36.825	9.443	26.628
214	96.177	10.684	28.365
215	51.263	35.416	26.416
216	93.033	19.820	24.626
218	49.258	78.108	26.822
219	17.520	83.667	28.036
221	76.221	76.340	29.170
222	15.128	77.243	25.441
223	69.591	74.054	26.077
224	93.245	44.000	23.591
225	79.330	68.533	25.128
226	71.827	62.622	26.908
227	100.650	61.340	21.435
228	12.414	58.831	28.280
229	20.815	48.370	26.056
230	105.128	46.751	29.155
231	15.047	42.149	27.609
232	103.945	36.494	29.555
233	7.965	22.613	28.896
234	74.081	10.941	25.842
235	31.261	71.181	22.045
236	5.521	41.576	25.607
237	79.285	35.506	26.501
238	22.619	35.230	28.637
239	4.968	12.491	22.831
240	107.324	8.247	25.284
241	73.298	82.717	25.747
242	103.924	77.877	22.977
243	87.331	82.340	15.300
244	44.697	82.743	29.071
245	24.293	67.563	25.297
246	43.784	57.473	22.208
247	69.750	50.514	23.231
248	89.859	13.604	24.720
250	68.340	34.484	21.027
251	32.721	27.190	25.198
252	51.808	25.365	31.990
253	69.987	18.927	26.653
254	81.284	17.404	29.547
255	86.536	20.952	24.103
256	98.755	16.620	28.088
257	44.312	16.479	27.707
258	68.824	8.848	23.668
259	36.279	44.100	16.095
260	74.869	30.616	22.902
262	40.436	24.931	23.645
263	78.198	26.880	27.449
264	92.936	24.964	28.127
265	65.563	22.728	25.532
266	46.689	19.785	25.625
267	28.307	22.379	27.922
269	107.684	83.464	23.981
270	64.804	80.846	21.403
271	48.597	71.790	25.482
272	52.101	19.425	26.549
273	19.958	70.968	26.075
275	49.048	65.224	20.816
276	67.010	59.140	23.984
277	28.094	49.887	25.096
278	74.435	51.123	20.984
279	85.549	36.996	24.661
280	38.572	39.740	23.259
281	49.151	30.345	22.750
282	58.091	22.808	25.745
283	8.596	70.593	28.554
284	76.815	40.034	27.085
285	79.486	47.959	23.927
286	55.168	49.961	23.399
287	91.392	32.513	24.203
288	16.437	29.814	30.096
289	99.751	26.137	33.959
290	22.630	24.984	27.770
291	46.564	10.128	29.822
292	33.877	79.913	28.349
293	53.368	68.015	24.457
294	36.721	62.831	27.321
295	83.896	50.764	28.935
296	96.893	36.468	27.613
297	82.213	42.919	25.477
298	42.086	29.542	28.078
299	83.921	31.871	28.573
300	85.706	24.952	28.968
301	44.048	23.451	29.984
302	98.431	21.611	32.479
303	105.463	19.034	27.009
304	58.074	17.125	24.663
305	73.710	15.592	29.819
306	22.672	16.395	27.231
307	61.109	28.068	23.551
308	6.682	16.944	28.851
309	15.421	36.069	27.890
310	32.690	39.221	26.158
312	89.740	71.680	27.905
313	11.618	70.187	32.840
314	40.011	61.021	23.062
316	65.937	50.181	30.696
317	17.377	42.233	32.440
318	58.367	37.605	28.800
319	58.457	20.333	33.231
320	95.625	41.597	30.531
321	71.403	24.346	28.488
322	5.837	1.779	28.586
325	55.101	75.966	26.428
326	59.417	65.465	27.679
327	4.562	58.413	29.516
328	33.429	54.158	29.203
329	57.907	50.692	28.041
330	46.162	47.355	28.159
331	62.293	22.060	30.904
332	82.355	78.609	31.116
333	65.125	13.015	27.731
335	76.869	55.241	28.026
336	8.308	52.733	29.363
337	10.761	44.453	31.433
338	28.063	36.666	24.643
339	5.386	27.961	31.883
340	34.015	20.645	26.121
341	107.811	26.759	28.838
342	40.298	6.212	29.145
344	107.793	56.755	26.960
346	27.497	82.993	26.157
348	38.241	68.834	24.129
349	93.739	64.449	29.545
350	16.921	60.795	25.023
352	61.150	57.351	25.979
353	41.363	55.720	30.124
354	98.417	51.590	26.441
356	18.342	7.613	28.489
357	71.194	54.959	26.060
358	14.596	65.644	25.459
359	23.289	77.358	30.940
360	36.260	69.072	19.084
361	21.204	63.050	28.049
362	80.291	59.145	27.612
363	45.906	54.596	26.102
364	49.966	47.163	23.058
365	24.252	44.566	29.525
366	109.569	40.826	29.453
367	34.375	33.655	25.286
368	102.290	57.741	28.524
369	100.166	40.368	36.273
370	88.549	28.449	19.991
371	32.422	28.120	32.143
372	17.768	21.330	31.793
373	60.645	8.969	27.484
374	24.230	8.962	29.090
375	83.969	4.539	24.884
378	44.646	66.883	24.485
379	8.369	31.975	28.150
380	97.508	47.308	34.440
381	28.381	50.851	34.531
385	67.579	76.043	47.639
386	10.459	72.667	45.240
387	88.157	66.666	45.984
388	88.960	58.731	44.017
389	52.906	55.729	42.572
391	89.690	52.972	45.967
394	89.102	44.184	42.604
395	55.531	49.004	45.100
396	43.258	43.445	43.269
397	54.647	39.138	42.343
398	43.751	24.735	45.894
399	65.125	18.676	42.899
400	59.936	16.123	44.443
401	76.923	7.825	45.278
402	50.981	10.043	44.958
403	26.169	28.640	44.008
405	30.159	48.463	46.368
410	76.469	45.574	41.461
411	90.070	31.314	40.053
412	12.776	19.905	41.959
413	86.867	18.727	41.403
414	73.102	17.805	43.890
415	98.474	13.369	46.279
416	28.309	16.029	43.893
417	107.832	74.530	42.845
418	43.426	68.736	42.518
419	54.742	67.741	38.729
422	44.561	50.126	42.658
423	22.643	60.632	38.794
424	17.664	54.393	41.896
426	79.085	12.793	42.575
427	64.374	9.283	46.603
428	71.549	4.620	37.550
429	47.659	81.053	46.054
430	17.479	72.870	43.570
431	102.413	69.183	43.538
432	59.521	61.353	38.984
433	13.116	61.753	43.853
434	91.460	39.098	46.661
435	48.655	39.432	46.367
436	14.339	35.532	46.082
437	25.538	34.348	40.779
439	56.359	81.004	40.659
440	85.308	34.421	44.515
441	11.469	25.083	43.146
443	87.504	5.669	44.998
445	37.012	3.954	41.339
446	70.981	81.014	39.066
447	8.752	76.010	40.514
448	68.330	75.245	38.894
449	75.073	56.873	38.904
450	56.243	28.321	40.661
452	27.906	1.982	39.972
453	74.112	24.416	38.931
454	18.899	79.821	44.852
455	39.398	72.201	40.425
456	51.239	79.631	42.997
457	67.400	68.847	44.766
458	22.263	67.995	40.289
460	46.616	64.444	44.447
461	97.085	62.438	44.068
462	33.015	61.508	43.513
463	9.221	12.557	44.643
464	98.129	54.663	40.967
465	104.057	44.665	41.508
466	11.619	46.025	38.916
467	46.452	35.971	43.033
468	96.769	31.379	40.100
469	49.250	31.204	45.529
471	73.635	27.851	42.626
473	21.829	22.056	42.963
474	7.135	50.124	44.410
475	23.538	75.128	44.814
476	66.459	86.528	45.094
477	103.464	84.027	43.150
479	60.449	35.922	43.005
488	85.238	25.847	41.670
494	4.282	73.411	43.751
495	28.813	64.495	44.382
497	79.181	53.630	41.916
498	98.991	24.216	46.438
499	99.860	48.825	45.178
500	66.960	52.960	41.047
501	43.481	56.695	43.711
504	92.765	57.679	39.589
514	39.057	8.637	44.414
517	89.804	80.215	44.685
518	61.572	73.938	43.104
521	29.636	70.079	41.622
522	41.605	17.627	43.055
523	26.826	56.559	40.649
525	2.770	40.885	45.077
528	93.018	9.958	44.430
530	59.175	4.654	45.905
531	29.479	84.447	45.131
532	99.456	82.415	39.742
533	36.012	68.493	40.661
534	100.033	65.819	39.593
535	36.474	20.538	45.109
536	18.126	62.224	41.664
537	104.739	41.112	44.624
539	29.387	42.164	43.684
540	83.506	24.397	47.140
544	69.928	6.529	45.462
546	59.190	53.280	41.541
550	106.148	33.466	45.450
551	51.202	30.004	38.601
552	5.105	20.640	43.148
553	19.571	15.285	44.239
555	107.546	4.862	44.123
556	47.825	86.553	39.677
557	73.112	74.753	45.057
558	29.731	78.349	42.023
561	63.483	62.964	42.510
562	13.760	67.249	42.522
563	72.604	51.570	39.665
565	23.579	45.964	42.462
566	9.715	38.115	42.661
569	41.128	36.979	46.474
570	33.631	74.346	41.843
571	94.711	52.102	34.708
573	65.886	42.866	41.110
574	5.931	26.388	38.394
575	7.085	13.401	34.950
576	58.597	8.224	33.467
577	86.984	14.052	36.874
578	50.895	5.925	32.024
580	27.670	73.679	39.118
582	82.052	55.787	32.292
583	45.430	31.454	39.235
584	36.327	54.134	35.385
585	3.248	49.808	34.929
586	94.228	42.051	38.561
587	28.671	39.093	38.046
588	80.180	32.061	38.062
589	84.188	26.001	35.016
591	55.880	17.152	38.729
592	73.705	11.434	41.023
593	59.949	13.604	39.501
594	26.300	50.737	41.159
595	24.642	10.303	40.842
596	39.428	33.781	41.753
597	65.621	43.754	34.034
598	7.983	18.137	38.652
599	82.032	3.399	36.362
600	92.855	80.656	39.082
601	104.153	86.349	34.566
603	86.928	69.174	38.559
604	18.243	62.765	35.734
605	53.252	63.050	35.673
606	91.221	37.057	37.799
607	6.648	42.982	36.666
608	62.450	24.770	41.080
609	32.707	17.595	40.249
610	32.971	6.221	39.093
611	10.705	8.652	39.614
612	60.853	5.299	40.245
613	19.005	84.146	38.543
615	62.535	64.684	35.204
616	34.333	60.379	38.368
617	51.775	49.431	39.348
618	44.938	20.799	40.645
619	11.709	20.368	35.024
620	20.618	9.855	36.606
621	57.082	83.163	35.148
623	16.635	69.617	37.359
624	67.182	67.900	35.458
626	24.360	60.534	32.883
627	95.008	60.195	35.450
628	9.965	58.309	37.933
629	86.206	42.221	34.609
630	36.367	41.319	33.417
631	47.575	80.306	33.961
632	47.006	40.590	38.568
633	28.283	68.119	35.828
634	98.257	75.428	39.696
635	29.355	66.436	29.783
636	90.708	68.193	33.053
637	3.849	67.317	32.402
638	96.328	68.209	35.523
639	75.107	56.800	33.118
641	57.942	48.681	33.601
642	28.173	81.216	33.346
644	36.105	8.726	34.445
645	106.575	9.785	36.980
647	24.685	81.220	40.347
650	46.306	74.802	37.863
652	47.285	57.175	34.594
653	67.887	58.494	36.010
654	20.899	55.481	35.976
655	87.023	6.497	38.861
656	56.993	44.558	39.661
657	74.502	36.161	31.027
658	38.505	32.488	34.068
659	63.328	30.568	40.978
660	64.207	30.279	35.098
661	100.482	33.976	37.092
662	81.077	20.002	42.621
663	63.403	16.615	31.574
664	43.834	12.533	33.788
665	67.726	13.829	34.633
666	62.663	36.188	33.484
667	51.322	3.745	23.087
668	102.241	29.358	38.132
669	14.773	38.795	38.056
670	7.157	79.473	32.333
671	103.997	76.757	38.073
672	58.374	72.163	37.706
673	25.281	68.657	46.148
674	74.217	68.417	41.531
675	86.334	64.022	31.630
676	2.099	69.764	38.948
677	7.959	68.247	40.498
678	27.532	63.641	38.468
679	103.232	77.938	43.952
680	4.846	63.448	38.559
681	35.165	41.082	39.615
682	33.995	28.334	45.748
683	78.699	24.534	42.653
684	51.581	14.387	40.425
685	40.343	85.516	40.564
686	93.004	74.872	37.679
687	21.494	73.693	38.184
688	74.987	62.914	43.153
689	87.589	63.952	40.546
690	66.830	47.849	43.623
691	41.191	59.581	36.700
692	60.687	86.152	43.608
694	84.251	36.982	38.938
695	45.622	13.331	45.543
696	13.293	81.798	40.187
699	78.072	73.873	42.456
700	33.192	77.894	35.848
701	80.470	68.152	39.933
702	105.440	52.720	41.995
704	37.377	53.644	42.440
705	21.291	39.863	38.511
706	7.056	33.360	40.945
707	93.170	27.593	35.080
708	50.989	23.189	44.686
709	91.565	13.735	41.884
710	39.210	21.554	37.092
711	66.402	11.616	42.283
712	16.624	8.803	43.191
714	51.338	43.305	36.531
715	21.317	30.018	41.608
716	32.037	51.223	41.341
717	97.847	49.033	39.472
718	73.209	42.377	34.593
719	61.471	39.912	36.363
720	55.405	37.930	35.899
721	76.139	38.961	43.893
722	66.770	35.322	38.519
723	80.478	29.899	45.419
724	40.668	25.608	42.345
725	58.114	21.378	38.083
726	19.609	19.277	37.785
727	61.610	50.742	36.608
729	42.615	79.842	39.516
730	54.598	77.073	37.583
731	54.297	70.696	34.108
732	11.380	64.688	36.375
733	76.590	47.814	36.627
734	45.821	47.944	33.555
735	91.126	48.893	39.915
736	95.818	37.618	42.301
737	72.681	32.365	37.945
739	39.650	47.316	39.532
740	47.619	63.262	37.598
742	86.405	53.601	40.143
743	42.615	36.649	37.233
745	106.345	35.331	39.962
746	26.535	20.932	40.028
748	32.657	10.509	43.429
750	22.620	3.206	38.651
752	68.103	52.752	35.679
753	17.545	46.736	39.346
754	108.173	47.047	45.576
755	109.098	29.581	40.968
756	15.014	29.639	42.978
757	90.613	21.640	37.871
758	45.104	7.969	43.043
759	77.349	6.252	38.911
760	54.261	7.435	38.231
761	5.172	82.537	38.845
762	12.274	52.711	41.455
763	78.430	6.395	23.464
764	42.196	43.357	34.850
766	78.975	19.349	11.089
767	28.458	16.123	8.822
768	93.506	11.084	5.496
769	36.804	7.471	10.468
771	29.214	68.182	6.059
772	23.773	71.577	9.528
773	54.209	60.082	4.263
774	84.256	55.938	10.415
775	70.831	49.930	6.842
776	41.942	47.501	8.176
777	109.028	37.735	9.491
778	75.435	25.873	5.141
779	71.379	9.016	3.368
780	9.795	7.822	9.644
784	66.487	67.331	10.397
785	8.585	15.717	12.346
787	38.752	34.839	7.084
788	88.214	34.128	5.384
789	20.653	55.240	8.664
790	87.891	43.778	5.218
791	5.267	50.251	4.524
792	105.284	29.608	9.390
793	108.604	25.175	7.891
794	15.749	25.434	12.841
795	38.661	20.321	13.175
796	26.806	21.259	9.726
797	1.593	17.366	7.287
798	106.695	61.488	7.354
799	52.694	10.309	12.173
801	75.371	77.971	6.121
802	16.329	66.024	8.057
803	71.574	55.222	10.499
804	64.974	54.217	6.893
805	46.624	49.214	4.733
807	75.482	43.207	10.983
808	21.592	35.319	11.189
809	75.230	10.500	12.365
810	20.117	61.450	7.404
811	38.044	59.508	7.816
812	93.695	36.683	7.595
814	78.829	27.130	11.394
815	102.537	15.543	8.361
816	77.596	3.884	10.055
817	70.579	81.371	7.032
819	103.803	79.861	6.443
820	16.842	71.911	4.908
821	76.947	68.024	8.154
822	64.860	29.893	9.467
823	62.054	68.363	5.509
824	17.900	50.857	5.813
825	51.883	48.917	7.202
827	3.976	39.202	3.662
828	70.234	37.786	7.433
829	45.109	37.735	5.088
830	31.078	33.508	7.662
831	17.705	31.071	6.384
832	33.120	27.204	6.133
833	40.225	65.434	4.600
834	10.194	49.748	6.540
835	83.208	37.303	7.360
836	14.045	38.509	11.121
837	8.599	40.275	9.733
838	51.296	39.703	4.358
839	109.340	31.171	3.448
840	95.874	31.773	6.360
841	49.004	28.650	6.451
842	6.793	21.798	7.470
843	15.696	16.905	14.176
844	41.410	18.174	7.651
845	73.777	18.528	8.048
846	70.502	33.351	2.550
847	97.000	5.679	8.423
849	33.677	73.034	6.490
850	70.669	68.185	6.895
851	3.924	63.806	7.564
852	100.746	60.021	3.533
853	7.104	56.470	6.852
854	47.035	55.961	3.462
855	21.002	45.349	10.314
858	67.103	53.395	12.309
859	41.552	64.487	10.343
861	32.622	55.631	11.153
862	62.217	57.009	12.122
863	99.647	53.491	15.141
864	15.401	52.516	10.346
865	49.444	41.757	8.918
866	18.023	31.194	13.215
867	70.249	6.155	9.045
868	55.310	5.813	7.819
870	94.354	54.737	10.750
871	34.724	83.037	6.172
872	27.154	57.107	9.484
873	107.868	48.353	12.585
874	89.755	42.146	12.882
875	79.888	48.447	11.494
876	2.778	45.609	10.137
877	37.391	41.486	9.288
878	26.333	29.447	8.847
879	50.532	33.955	8.321
880	48.102	26.100	15.303
881	74.715	59.607	8.436
882	54.553	27.787	14.542
883	65.829	59.979	7.603
884	31.215	60.626	9.277
885	95.595	45.944	9.264
886	52.712	55.903	9.777
887	102.669	47.437	10.442
888	108.313	31.351	13.986
889	43.233	24.907	8.193
890	93.735	25.094	14.629
891	63.019	23.188	11.449
892	71.211	23.750	10.636
893	59.162	19.237	12.611
894	55.512	68.676	10.022
895	79.276	13.487	14.983
896	99.329	13.226	17.519
897	73.766	3.869	13.656
898	91.946	84.159	11.180
900	76.144	81.538	14.018
901	62.686	84.185	10.078
902	56.116	74.114	13.087
903	96.648	64.072	11.590
904	90.409	65.511	10.300
905	42.816	10.853	10.729
906	30.583	27.031	11.327
909	61.966	27.952	14.347
910	49.108	23.095	9.580
911	94.141	14.629	10.898
912	13.332	12.339	14.664
913	41.108	3.513	12.526
914	107.773	6.553	14.350
916	10.438	63.496	6.962
917	82.080	62.428	6.791
918	64.532	40.999	6.571
919	29.945	48.798	7.853
920	26.831	43.332	8.373
921	65.646	48.548	6.565
922	55.552	36.328	13.535
923	85.927	16.774	10.924
924	89.082	8.156	12.647
925	20.922	10.293	6.404
926	28.044	5.353	7.724
928	13.492	86.865	6.733
929	12.608	45.376	10.230
930	67.904	15.695	13.745
931	101.608	37.955	12.037
932	85.176	50.026	9.656
933	39.918	85.342	7.570
935	15.079	60.339	8.610
936	77.777	47.129	5.177
937	76.289	34.445	6.529
938	35.569	25.616	15.110
939	35.152	13.344	8.627
940	49.466	5.872	8.602
941	68.281	8.907	13.418
942	56.038	43.666	8.505
944	56.427	81.715	11.615
945	108.158	83.169	14.337
946	100.244	78.411	11.923
947	19.946	75.035	7.850
948	68.848	76.983	11.815
949	39.888	73.045	6.764
951	12.407	73.631	7.960
952	46.066	58.862	9.621
953	24.815	81.271	4.527
954	33.621	19.619	6.758
955	14.600	13.038	8.322
956	83.695	11.970	7.976
962	11.872	23.153	8.534
963	55.230	23.450	7.642
964	22.128	17.146	6.194
965	97.298	16.059	3.008
973	24.830	75.750	5.995
981	46.316	20.788	3.990
986	54.703	78.576	4.322
987	6.253	75.931	5.030
990	31.067	62.473	2.948
995	78.654	9.787	4.077
1000	99.342	58.532	10.565
1010	104.438	52.577	2.395
1017	6.039	33.421	5.149
1023	63.995	3.370	19.893
1029	26.182	35.655	5.406
1032	28.106	24.690	3.416
1042	76.955	42.028	4.400
1045	22.160	29.080	3.538
1051	83.158	23.583	4.590
1054	29.991	56.467	4.496
1055	70.079	55.620	4.130
1056	57.205	49.047	4.588
1057	83.940	44.688	9.900
1060	31.414	39.076	7.208
1061	101.251	33.007	6.604
1062	22.429	54.982	3.498
1063	19.382	36.648	5.239
1065	18.974	21.669	8.700
1066	102.879	22.281	8.479
1067	59.406	26.575	9.380
1068	45.425	5.500	3.804
1071	17.186	80.722	9.314
1073	58.313	34.621	4.894
1075	45.711	68.508	6.412
1076	96.831	71.880	10.043
1077	49.037	11.780	6.742
1078	62.112	6.931	9.359
1079	30.317	79.853	6.647
1080	81.431	68.914	4.877
1081	92.708	71.663	4.994
1082	51.775	74.070	8.487
1084	22.101	67.478	4.887
1085	58.198	54.322	6.432
1086	90.837	58.239	8.668
1088	24.072	49.555	6.842
1089	42.016	28.860	5.159
1090	67.373	20.880	7.051
1091	11.438	18.611	5.480
1092	70.654	13.591	7.514
1093	49.793	16.800	9.998
1094	16.894	6.225	12.379
1095	21.601	4.556	5.124
1097	99.258	49.487	6.263
1098	103.992	24.825	2.527
1101	70.496	41.386	2.756
1102	88.714	38.828	8.639
1103	7.905	28.143	7.000
1104	26.710	10.039	2.557
1105	12.815	3.227	5.343
1106	92.975	3.526	4.901
1108	61.288	81.600	5.508
1111	98.822	74.374	5.135
1112	73.902	64.421	3.658
1116	58.682	61.642	7.408
1117	105.573	54.115	9.869
1118	89.095	51.539	4.361
1120	33.284	44.375	3.678
1122	56.612	66.745	5.018
1124	104.806	69.082	5.253
1125	21.015	43.284	3.017
1128	68.774	27.472	5.920
1129	91.092	24.118	7.095
1131	97.692	22.445	9.924
1134	48.780	62.155	5.377
1135	40.651	9.784	4.819
1136	2.884	6.844	7.109
1137	58.859	5.496	2.426
1139	103.302	6.709	8.325
1145	107.972	13.117	6.114
1146	48.403	71.008	13.338
1148	59.956	75.244	6.859
1149	87.782	8.310	18.527
1150	31.525	80.009	19.939
1151	54.372	67.970	16.169
1152	22.955	68.106	19.327
1153	88.341	61.645	13.401
1154	64.161	51.889	25.393
1155	63.776	45.445	19.939
1156	99.177	39.406	18.403
1157	67.348	41.493	18.039
1158	81.550	28.481	23.044
1159	16.510	16.678	25.101
1160	5.753	21.726	21.527
1161	55.026	20.215	20.573
1162	76.802	16.171	22.901
1163	35.922	16.026	17.962
1164	26.620	19.884	15.878
1165	72.670	8.945	18.036
1166	26.359	3.528	20.206
1167	82.780	81.109	19.207
1168	36.558	10.066	18.532
1169	96.432	16.563	21.899
1170	66.439	27.429	20.871
1171	44.057	39.254	17.624
1172	23.839	82.531	19.992
1173	108.244	77.290	15.735
1174	15.121	72.428	18.777
1175	83.133	65.137	18.404
1176	75.037	60.330	21.477
1177	7.241	48.715	26.454
1178	45.265	50.018	14.632
1179	24.549	37.042	19.806
1181	93.745	71.794	15.228
1182	38.604	14.958	24.310
1184	11.341	77.772	19.874
1185	101.496	67.026	21.016
1186	34.357	51.902	21.905
1187	17.847	48.530	21.019
1188	103.440	47.794	21.473
1189	95.104	44.038	15.042
1190	17.064	40.329	20.981
1191	79.284	38.679	19.102
1192	19.099	3.084	22.344
1193	75.048	77.452	22.757
1194	27.742	70.985	16.681
1195	70.779	63.976	21.394
1198	64.494	21.954	18.431
1199	80.939	12.041	21.929
1201	31.778	66.023	17.342
1203	8.492	62.349	18.935
1204	107.311	60.612	18.610
1205	79.700	32.825	18.920
1206	22.983	54.793	24.166
1207	88.046	43.661	22.148
1208	97.411	34.333	22.385
1209	89.192	33.279	17.669
1210	5.037	34.786	18.435
1211	29.927	32.985	18.792
1212	47.282	25.399	24.259
1213	94.300	29.313	18.050
1214	27.491	25.584	19.113
1215	19.865	17.272	19.683
1216	105.296	43.988	15.863
1217	78.486	81.124	25.080
1218	20.938	32.356	20.958
1219	37.508	37.088	18.290
1220	7.144	56.635	22.450
1221	39.885	52.441	18.753
1222	85.885	39.979	18.687
1223	8.360	37.982	21.272
1224	9.389	26.265	15.611
1225	102.833	27.007	18.514
1226	76.262	24.275	22.106
1227	71.067	22.943	20.213
1228	95.716	22.944	19.911
1229	52.668	39.236	21.181
1230	51.816	13.790	20.842
1231	43.733	10.354	19.919
1232	29.387	7.118	15.451
1233	21.972	4.150	15.403
1234	103.280	81.190	18.553
1235	16.796	82.232	21.060
1236	6.391	73.598	21.276
1237	36.861	57.702	20.603
1239	2.894	40.471	21.550
1240	103.293	12.400	23.042
1241	54.058	80.555	21.492
1242	33.061	85.476	22.047
1243	18.853	12.221	26.203
1244	30.791	44.676	18.702
1245	46.848	40.593	24.073
1246	14.148	32.666	21.749
1248	101.419	24.465	24.916
1249	33.634	22.022	19.000
1250	23.351	13.376	22.420
1252	48.496	82.923	22.513
1253	41.649	57.958	16.958
1254	72.931	69.381	22.702
1255	85.624	55.207	22.539
1256	79.602	55.819	23.455
1257	91.129	56.541	19.458
1258	48.260	52.959	21.658
1259	12.533	52.383	25.150
1260	24.192	44.374	22.508
1261	5.878	45.098	19.845
1262	12.315	37.944	24.035
1265	24.758	29.625	24.937
1266	6.845	66.557	24.078
1267	100.917	71.217	24.193
1268	36.176	64.959	8.678
1269	87.825	71.753	21.325
1270	57.026	62.471	22.120
1271	64.997	68.133	20.379
1272	96.253	52.462	20.254
1274	40.221	50.362	25.715
1275	89.121	8.220	27.356
1276	44.444	6.959	23.939
1277	81.325	72.894	22.032
1278	6.872	8.331	27.111
1279	96.314	66.704	23.941
1280	57.916	38.784	23.559
1281	104.288	33.178	24.108
1282	43.037	33.981	21.041
1283	10.303	15.608	23.041
1284	61.243	13.493	20.277
1286	9.946	82.561	20.917
1287	5.035	77.973	26.628
1288	25.132	76.112	21.920
1289	1.459	18.584	13.090
1290	17.012	24.556	23.532
1291	44.514	17.795	21.004
1294	47.258	76.646	20.245
1295	62.654	76.054	24.977
1296	39.831	78.021	22.391
1298	100.249	65.713	16.050
1299	80.466	62.186	21.230
1300	62.434	60.020	19.668
1302	53.453	61.196	18.311
1303	61.623	39.933	20.000
1304	108.388	43.470	21.749
1305	104.105	42.331	24.578
1306	63.330	32.618	18.875
1307	37.808	29.343	21.346
1308	57.233	31.561	25.386
1309	7.512	27.830	24.343
1310	80.729	21.832	24.534
1311	28.843	16.790	19.817
1312	10.500	44.443	23.508
1313	84.722	24.334	20.106
1314	91.981	4.922	22.404
1315	51.621	46.676	17.206
1316	83.226	17.300	20.548
1317	23.211	20.907	21.988
1318	106.697	15.853	18.476
1319	55.771	8.825	21.377
1321	58.256	7.892	15.530
1322	47.459	4.530	19.254
1323	23.374	8.475	18.601
1324	57.414	3.665	20.989
1325	70.220	44.834	21.368
1326	9.504	5.545	22.670
1327	19.906	77.600	23.103
1328	69.220	79.226	27.907
1329	12.501	71.490	23.984
1331	11.907	67.301	20.386
1332	97.302	58.068	26.436
1333	84.554	54.719	15.974
1334	92.105	50.978	27.042
1335	84.656	49.064	18.826
1337	67.966	14.623	20.999
1338	38.278	76.423	29.741
1339	66.166	8.702	18.496
1340	15.729	70.255	11.894
1341	19.095	60.239	13.373
1342	37.907	55.183	11.086
1344	10.632	54.429	15.118
1345	4.517	54.457	14.842
1346	27.955	51.635	17.371
1347	92.207	37.557	17.016
1348	7.378	41.159	14.692
1349	76.031	39.018	14.018
1350	48.978	35.053	16.162
1351	35.740	30.433	11.468
1352	75.529	27.093	16.302
1353	109.095	23.476	17.960
1354	88.174	19.249	15.473
1355	58.348	19.297	4.401
1358	6.604	87.136	9.534
1359	75.198	75.095	11.581
1360	11.094	78.607	13.450
1361	22.393	80.486	14.595
1362	82.762	7.941	11.340
1363	41.323	32.090	15.487
1364	55.057	32.149	18.427
1365	6.948	21.180	15.785
1366	43.956	14.651	15.983
1367	104.977	13.196	13.447
1368	93.103	15.229	17.501
1369	32.884	2.957	15.621
1370	41.071	83.776	15.196
1371	81.075	79.127	12.160
1372	103.160	19.288	18.983
1373	87.910	76.882	18.573
1374	21.390	67.605	12.824
1375	72.054	60.279	14.069
1376	60.567	42.464	13.949
1377	107.132	38.660	16.285
1378	2.059	40.448	11.864
1379	26.081	33.553	14.999
1381	32.950	11.276	13.741
1382	6.318	15.703	17.595
1383	103.700	72.856	13.436
1384	7.862	73.390	12.513
1385	85.940	71.351	9.573
1386	108.404	73.135	9.313
1387	19.728	54.267	15.427
1388	60.461	49.063	13.361
1389	99.852	42.607	8.871
1390	44.692	41.234	11.178
1391	42.940	35.158	11.666
1392	63.955	37.228	12.938
1393	31.956	37.673	13.994
1394	81.556	29.543	5.542
1395	24.477	26.217	14.874
1396	10.937	59.921	11.903
1397	21.258	22.276	15.936
1398	4.279	11.768	12.424
1399	80.338	6.635	18.333
1400	24.649	9.639	11.477
1401	48.849	2.643	13.112
1403	46.448	79.427	8.406
1404	39.211	80.216	11.024
1405	27.209	76.397	12.118
1407	33.138	17.893	12.556
1408	14.804	36.189	16.529
1409	80.670	65.938	13.128
1411	43.418	69.617	14.957
1412	88.817	47.707	12.489
1413	43.962	53.024	10.266
1414	61.622	53.982	18.244
1415	47.204	46.430	11.370
1416	20.777	41.526	17.346
1417	89.009	29.397	10.956
1418	43.868	19.959	15.892
1420	33.049	77.623	12.157
1422	72.835	49.764	12.616
1423	69.145	44.847	9.094
1424	81.357	33.239	12.314
1425	83.767	27.115	14.844
1426	8.878	32.538	11.561
1427	72.567	29.619	11.569
1428	86.742	23.934	11.659
1429	55.771	17.032	8.104
1430	89.425	13.927	6.494
1431	78.348	54.705	11.217
1432	100.843	67.203	10.945
1435	72.380	20.370	15.295
1436	49.603	14.961	16.185
1437	72.754	82.008	19.467
1439	78.400	71.016	16.271
1440	56.237	51.674	17.839
1441	90.172	50.540	20.444
1442	7.713	49.092	12.637
1443	69.377	49.792	16.230
1444	48.758	42.006	16.427
1445	25.972	43.374	13.889
1446	74.484	15.688	17.524
1447	44.778	7.919	15.308
1448	10.162	84.955	12.985
1449	63.907	73.252	15.888
1450	40.314	77.809	16.084
1451	47.476	70.772	18.985
1452	20.618	59.952	19.497
1453	56.434	57.804	13.697
1454	106.797	56.686	15.040
1455	57.791	11.243	8.513
1456	75.241	56.159	16.548
1457	79.751	45.191	17.310
1460	63.105	67.906	15.252
1462	59.053	85.312	19.456
1463	6.386	79.729	16.385
1464	48.809	82.909	16.439
1465	50.868	74.422	16.649
1466	34.911	63.290	21.733
1467	106.177	54.562	20.537
1468	33.857	49.758	13.744
1469	69.333	55.046	17.644
1470	51.226	51.985	12.597
1471	99.442	18.280	14.910
1472	108.034	8.816	19.326
1473	8.391	3.890	15.663
1475	35.978	71.663	13.545
1476	58.888	64.387	15.992
1477	16.246	66.517	17.592
1478	26.910	66.295	11.335
1479	22.208	49.263	15.609
1480	10.714	49.660	18.475
1482	87.226	36.295	13.014
1483	67.903	3.605	15.133
1484	99.855	3.102	18.797
1485	54.811	79.564	15.868
1487	50.908	64.895	9.190
1488	46.628	63.785	15.553
1489	49.310	57.332	14.899
1490	79.790	51.604	16.131
1491	54.018	41.082	15.490
1492	52.040	5.372	16.331
1493	103.169	34.987	18.116
1494	14.435	20.757	20.809
1495	62.556	11.833	13.928
1496	87.190	13.831	17.985
1497	21.042	15.395	12.260
1498	30.205	82.171	14.906
1500	94.297	80.684	17.095
1501	18.434	76.723	13.723
1502	100.031	47.477	15.964
1503	97.959	28.984	12.548
1504	102.401	24.141	14.063
1505	9.608	67.841	14.277
1506	53.624	25.610	19.994
1507	49.639	20.061	20.867
1508	42.464	25.406	18.321
1509	78.187	21.121	17.563