ITEM: TIMESTEP
18.015873957166125
ITEM: NUMBER OF ATOMS
1492
ITEM: BOX BOUNDS
1.0317460317460316 110.39682539682539
1.0317460317460316 87.28571428571428
2.5 48.0
ITEM: ATOMS id x y z
1	92.043	38.868	33.010
2	71.401	34.033	31.885
3	91.764	30.426	30.943
4	75.968	27.061	33.865
5	54.183	21.761	29.857
6	40.779	13.837	29.460
7	57.645	13.446	34.603
8	48.079	86.238	34.289
9	20.668	80.811	34.503
10	67.604	80.530	32.651
11	89.694	78.365	31.533
12	100.165	73.455	33.368
13	58.799	59.910	31.820
14	24.300	53.693	31.421
16	4.685	39.736	31.201
17	71.571	40.490	31.014
18	106.867	35.470	32.288
19	107.548	15.556	30.834
20	80.410	37.665	36.556
21	48.656	40.394	31.424
22	5.754	45.173	30.092
23	86.698	56.510	33.181
24	23.301	70.249	33.036
25	51.232	57.146	32.575
26	86.153	57.231	38.465
27	13.411	48.951	32.061
28	63.086	45.906	33.720
29	107.296	41.109	35.125
30	72.220	29.535	28.525
31	9.935	24.757	35.903
32	20.876	11.194	34.490
33	47.840	17.355	32.593
34	12.972	4.453	33.351
37	104.244	83.159	32.943
38	31.935	83.198	34.510
39	37.182	79.938	35.358
41	37.594	63.788	31.863
42	40.335	58.573	32.256
43	66.434	57.045	32.192
44	29.741	3.431	34.107
45	95.286	14.050	33.580
46	84.216	5.008	29.982
47	61.340	79.000	30.886
48	71.059	85.665	30.056
50	29.251	73.835	31.115
51	82.374	73.452	30.115
52	34.624	72.794	32.381
53	65.385	70.662	29.649
54	95.171	67.691	28.039
55	1.944	64.070	29.358
56	26.617	59.162	30.151
57	2.098	12.801	29.666
58	20.842	58.674	29.619
59	55.701	44.989	31.640
60	46.321	36.095	29.836
61	47.999	31.023	32.673
63	87.662	18.514	29.423
64	37.286	21.904	29.877
65	13.367	17.604	33.340
66	67.935	15.938	27.146
67	6.199	82.990	29.318
68	74.579	50.748	32.874
69	57.137	78.827	34.855
70	85.762	35.290	32.523
71	67.384	44.829	27.669
72	11.246	72.704	34.508
73	108.732	71.447	30.303
74	43.447	63.461	29.355
75	97.524	27.912	31.969
76	80.393	22.511	31.051
77	52.993	15.847	32.308
78	14.116	11.591	31.017
79	35.019	11.402	30.619
80	53.196	9.782	28.114
81	40.761	40.604	30.978
82	81.281	9.184	31.685
83	102.893	5.732	32.096
84	93.375	4.632	30.398
85	61.558	5.238	27.878
86	76.820	86.658	32.444
87	87.550	78.262	26.116
88	102.372	71.725	28.919
89	104.641	65.721	30.126
90	69.023	64.331	31.947
91	20.281	52.597	28.450
92	72.140	9.163	33.649
93	77.024	5.121	30.085
94	26.628	9.936	33.990
95	83.517	13.999	31.426
96	51.075	28.381	37.214
97	92.684	24.978	35.462
98	72.102	22.312	35.080
99	66.844	21.257	35.630
100	96.738	19.510	35.928
101	76.125	15.294	34.834
102	37.022	15.480	35.224
103	12.105	12.608	35.539
104	98.061	6.328	37.407
105	107.178	29.331	36.026
106	17.244	6.889	35.950
108	9.705	84.457	34.970
109	77.704	76.155	34.517
110	59.726	73.690	33.611
111	18.290	73.749	31.476
112	35.924	67.799	36.297
113	17.633	59.187	34.640
114	96.385	53.871	29.804
115	89.080	50.758	35.501
116	67.777	7.389	34.953
117	27.047	44.265	34.460
118	80.838	31.133	34.123
119	97.678	35.925	37.339
120	93.461	44.203	32.188
121	7.798	34.789	35.219
122	58.051	30.399	37.121
123	88.858	31.283	36.157
124	28.757	24.851	37.078
125	33.249	23.099	39.134
126	13.774	11.717	40.901
127	44.306	5.821	37.346
129	50.041	35.434	37.784
131	84.184	77.692	36.116
132	66.671	75.003	34.486
133	38.627	72.378	36.734
134	92.968	72.922	34.351
135	7.431	69.800	37.384
136	31.355	63.385	34.897
137	12.291	61.524	35.271
138	47.154	56.954	36.093
139	51.496	46.426	35.675
140	65.627	85.163	36.617
141	37.740	83.598	29.918
142	63.547	34.676	33.379
143	87.434	17.127	38.612
144	48.726	12.228	35.602
145	4.857	6.961	33.574
147	95.580	79.255	34.339
148	87.641	73.313	35.472
149	52.866	72.276	32.425
150	80.263	67.491	35.585
151	44.925	66.955	34.011
152	16.672	65.031	32.901
153	25.516	30.224	33.658
154	53.559	64.196	32.167
155	42.312	52.915	32.931
156	37.763	46.937	32.763
157	33.541	23.947	33.533
158	64.780	28.807	33.194
159	44.631	26.100	35.465
161	16.967	21.614	34.657
162	101.914	18.165	35.007
163	22.880	19.038	33.592
164	90.430	50.098	29.045
165	18.000	33.370	34.392
166	32.691	32.159	34.738
167	100.267	42.321	31.466
168	102.587	12.561	37.882
169	88.782	14.429	33.945
170	85.431	7.489	36.496
172	102.298	63.086	34.845
173	34.623	51.163	33.408
174	105.118	47.202	34.797
175	72.117	48.085	37.257
176	18.518	44.368	32.780
177	22.579	37.201	32.439
178	19.560	27.623	37.396
179	84.879	84.146	33.902
180	72.893	68.252	35.005
181	82.794	67.036	29.920
183	87.747	63.438	34.485
184	2.924	58.464	32.180
185	103.233	57.311	34.945
186	8.675	50.329	33.399
187	73.992	44.752	32.667
188	28.708	17.950	34.978
189	82.302	44.556	35.076
190	1.533	79.322	30.467
191	43.333	73.978	29.746
193	56.728	84.301	29.677
194	102.289	79.238	27.871
196	56.689	46.523	25.153
197	97.267	47.379	27.773
198	61.509	43.727	26.647
199	46.134	44.093	23.984
200	64.014	36.747	27.145
201	13.287	21.426	27.532
202	54.814	16.762	26.127
203	33.923	16.921	29.382
204	102.253	8.866	27.635
205	11.295	7.580	27.389
206	87.044	83.367	25.934
207	107.322	64.663	25.946
208	11.895	59.317	21.535
209	52.708	56.287	25.820
210	31.146	47.279	23.479
211	31.691	3.048	26.616
212	68.527	4.800	29.628
213	31.678	9.540	26.495
214	95.381	8.330	27.335
215	54.315	33.774	30.497
216	92.896	16.535	23.433
218	51.180	79.430	29.101
219	15.360	79.562	29.908
220	93.339	82.747	26.824
221	74.092	77.342	28.610
222	13.289	76.917	24.562
223	67.473	74.623	25.920
224	91.799	45.695	24.958
225	76.711	70.530	28.016
226	72.845	64.256	24.029
227	102.718	59.319	22.508
228	14.138	57.528	27.539
229	17.922	46.522	26.698
230	106.318	45.467	28.631
231	18.787	40.944	26.362
232	107.501	33.109	27.335
233	7.450	20.173	25.992
234	73.896	12.001	26.218
235	27.830	70.619	24.800
236	7.448	37.686	26.824
237	82.641	35.966	27.762
238	21.388	32.940	27.824
239	5.525	13.859	21.424
240	107.986	8.427	26.873
241	71.656	84.171	23.996
242	100.627	82.725	22.778
243	88.581	84.192	21.333
244	43.939	80.912	28.115
245	27.297	64.233	25.744
246	45.063	61.299	24.167
247	71.485	51.465	26.379
248	82.648	13.781	24.681
250	68.923	37.207	24.620
251	27.642	26.026	23.342
252	52.859	27.074	29.438
253	71.196	21.509	25.999
254	80.003	18.314	25.291
255	86.934	17.712	23.849
256	97.834	14.690	26.408
257	48.766	14.917	25.919
258	68.754	10.231	26.094
259	38.458	43.944	22.248
260	77.189	36.571	25.628
262	39.634	25.390	23.201
263	81.309	27.567	28.583
264	94.040	22.217	27.463
265	66.169	24.033	25.168
266	42.869	21.709	26.192
267	26.188	17.680	27.671
268	19.275	86.308	25.307
269	104.744	84.354	26.872
270	64.072	84.698	23.724
271	47.432	72.237	22.409
272	49.012	20.787	25.761
273	22.157	71.785	26.893
274	1.620	66.217	23.114
275	48.975	66.600	23.716
276	66.822	60.459	25.818
277	23.843	50.463	24.934
278	75.323	50.617	22.096
279	87.151	35.228	23.579
280	38.078	37.742	25.456
281	49.936	33.861	24.809
282	58.470	27.680	26.344
283	6.590	66.680	25.592
284	75.547	42.060	27.389
285	79.311	47.170	27.619
286	57.475	52.327	24.170
287	93.516	30.659	25.605
288	16.742	27.183	30.628
289	103.897	25.194	32.295
290	21.605	24.005	30.287
291	46.002	9.676	30.441
292	32.845	79.100	26.826
293	53.870	68.580	26.072
294	33.478	64.076	27.884
295	84.835	51.011	30.491
296	95.513	34.120	28.953
297	83.973	41.965	28.266
298	42.607	30.063	30.607
299	85.775	29.902	28.687
300	87.964	24.738	29.346
301	47.223	24.762	31.298
302	99.402	20.140	28.389
303	106.163	18.551	24.855
304	59.932	17.878	27.897
305	77.377	17.715	30.321
306	22.298	14.680	28.585
307	64.326	31.280	27.883
308	7.640	13.106	28.667
309	14.727	37.330	28.850
310	30.734	40.332	29.077
311	94.526	72.995	22.629
312	89.718	70.500	29.053
313	10.879	68.173	32.109
314	38.562	62.257	25.351
315	3.295	54.297	26.568
316	66.203	51.023	32.909
317	13.355	41.320	33.137
318	59.766	40.328	31.499
319	59.769	22.902	33.572
320	94.929	39.595	29.052
321	75.350	24.477	27.687
322	6.895	1.297	28.778
324	81.386	85.125	28.677
325	55.273	75.893	28.047
326	61.022	64.805	30.126
327	10.427	61.638	29.131
328	33.670	57.579	29.938
329	60.877	49.379	28.886
330	42.040	46.055	29.136
331	68.024	20.659	31.329
332	79.659	80.046	30.679
333	62.825	12.325	29.877
335	78.797	53.853	30.400
336	8.358	54.473	28.939
337	10.923	44.395	28.193
338	27.691	37.583	25.549
339	8.392	25.586	27.556
340	30.148	21.950	27.441
341	109.430	23.026	26.331
342	41.163	5.723	29.051
343	12.425	2.035	27.559
344	107.697	56.846	25.589
346	26.647	83.643	26.766
348	39.724	69.328	27.906
349	95.127	62.199	27.587
350	21.290	61.759	23.937
352	62.005	56.179	27.988
353	38.765	54.597	26.980
354	103.122	51.197	27.985
356	17.515	6.695	28.770
357	76.606	59.479	27.384
358	15.146	63.650	25.112
359	24.683	77.221	29.969
360	33.662	69.693	20.559
361	20.970	64.050	30.031
362	83.876	61.563	29.646
363	46.859	56.469	29.599
364	48.785	46.541	29.643
365	24.684	45.005	28.341
366	108.104	40.223	28.496
367	31.083	33.599	27.249
368	101.404	59.315	29.045
369	100.370	35.561	31.631
370	88.946	28.259	24.053
371	32.459	27.974	29.456
372	18.529	19.303	29.130
373	59.830	11.561	24.489
374	27.166	5.579	27.866
375	89.129	3.911	25.941
377	87.295	1.558	33.367
378	48.754	70.396	27.173
379	8.457	31.969	26.599
380	97.559	49.397	32.589
381	28.302	49.583	36.847
384	80.910	79.249	44.905
385	66.088	76.028	45.676
386	9.725	70.253	43.340
387	84.059	67.088	46.439
388	86.131	61.711	44.489
389	54.392	58.384	43.494
391	87.625	51.840	41.933
392	27.761	52.574	44.704
394	94.097	45.678	46.410
395	58.018	45.971	45.561
396	45.048	41.695	43.543
397	57.215	40.528	44.537
398	44.933	24.810	44.392
399	65.959	22.649	42.341
400	58.796	18.317	43.014
401	76.965	11.612	45.990
402	53.771	9.002	44.477
403	29.184	27.502	43.227
405	28.803	46.609	44.002
406	59.583	78.769	39.119
410	81.897	44.866	46.499
411	93.164	31.564	41.197
412	12.194	18.382	44.277
413	89.317	16.272	45.137
414	69.948	16.520	43.442
415	101.998	12.421	44.550
416	30.290	14.771	44.108
417	109.158	75.774	43.145
418	40.000	67.042	43.871
419	57.356	66.579	43.142
422	46.647	51.204	44.546
423	21.148	54.829	44.284
424	16.072	52.116	45.135
425	23.044	48.129	44.181
426	82.959	8.587	44.297
427	63.534	8.060	45.329
428	73.105	7.152	39.546
429	45.526	78.945	44.869
430	15.692	71.735	42.430
431	99.298	72.117	43.139
432	59.689	61.107	40.250
433	12.496	57.699	42.907
434	95.547	37.783	46.574
435	48.811	37.141	45.028
436	16.021	36.673	43.371
437	25.326	32.574	42.648
438	64.193	28.769	46.028
439	55.040	81.759	41.659
440	85.041	30.915	43.506
441	8.684	26.350	44.506
442	97.825	5.646	42.954
443	87.945	5.473	46.486
444	47.149	4.006	41.417
445	39.575	2.680	40.434
446	71.550	83.769	41.433
447	10.989	77.468	42.650
448	70.230	77.177	39.859
449	75.048	60.309	42.041
450	57.176	28.288	42.617
452	26.172	4.818	45.518
453	76.774	23.890	39.411
454	17.113	77.356	43.596
455	39.609	73.374	42.622
456	49.301	73.405	42.465
457	67.397	70.239	40.247
458	20.436	67.535	43.567
459	105.178	68.170	42.378
460	46.897	66.253	46.461
461	96.892	64.496	42.097
462	33.861	59.363	45.219
463	7.534	12.845	42.749
464	96.984	55.525	42.780
465	104.119	47.873	40.220
466	9.410	47.624	40.036
467	43.551	34.829	42.861
468	102.125	31.470	42.930
469	50.580	28.805	46.424
471	72.345	27.102	42.451
473	22.168	23.263	43.959
474	8.843	52.417	42.666
475	23.688	78.658	46.256
476	66.313	83.307	45.492
477	104.548	86.160	44.605
479	62.604	37.421	46.528
488	89.259	25.899	40.358
489	7.498	16.220	46.953
493	21.647	87.098	43.545
494	4.376	73.015	46.954
495	28.632	63.052	45.949
497	81.598	51.762	44.085
498	100.595	22.490	47.612
499	98.150	50.261	46.506
500	65.527	58.232	42.515
501	47.719	56.390	46.555
504	91.783	56.852	42.560
513	35.740	3.604	47.194
514	42.258	4.995	46.006
516	17.998	83.685	45.481
517	86.027	78.645	46.597
518	56.914	76.938	45.063
520	73.397	68.295	47.820
521	26.642	70.684	46.269
522	41.442	16.296	45.855
523	30.114	57.501	41.294
524	16.671	45.815	47.065
525	2.689	40.672	46.593
526	83.379	18.283	45.027
528	93.999	9.122	47.412
530	60.669	2.597	47.689
531	29.178	85.076	44.358
532	98.636	82.121	43.540
533	33.998	65.329	44.570
534	102.976	63.302	42.337
535	34.266	23.940	46.852
536	21.661	61.535	43.932
537	109.197	38.846	44.973
539	30.511	38.492	43.193
540	85.811	23.697	45.017
544	68.583	5.806	45.232
545	14.266	2.125	46.764
546	57.810	51.942	45.440
547	36.575	40.982	46.604
550	108.419	31.690	43.575
551	52.304	32.008	42.675
552	5.966	20.980	45.062
553	20.580	17.577	43.812
555	106.965	4.429	44.883
556	48.195	85.524	44.183
557	74.306	75.722	44.681
558	29.013	78.823	45.471
559	77.693	24.587	46.704
560	87.628	72.445	46.113
561	63.248	65.295	44.967
562	15.192	64.042	44.150
563	75.762	53.337	43.479
564	35.993	48.500	46.557
565	27.076	42.733	39.871
566	9.072	40.966	42.938
568	21.475	32.724	46.660
569	40.846	29.620	47.454
570	34.063	70.978	44.713
571	95.455	53.508	36.888
573	67.206	41.186	43.355
574	4.077	28.096	37.457
575	4.901	13.043	34.760
576	64.309	13.131	35.250
577	81.166	14.093	39.718
578	52.309	8.250	37.464
580	26.642	75.698	39.607
581	108.737	73.343	35.976
582	80.045	57.482	39.164
583	43.903	32.297	37.110
584	32.520	56.666	36.723
585	3.701	48.926	36.372
586	96.974	41.344	38.448
587	28.090	35.804	37.516
588	83.561	33.785	38.914
589	85.053	24.878	34.282
590	6.793	19.638	34.103
591	53.096	19.890	37.859
592	75.862	11.856	40.347
593	59.204	11.086	40.075
594	23.549	47.780	38.907
595	26.417	10.182	41.100
596	36.541	35.280	42.791
597	65.645	46.878	39.289
598	6.452	17.593	39.149
599	83.799	3.620	39.619
600	93.331	81.491	41.070
601	100.862	84.018	38.293
603	91.709	69.582	40.834
604	23.189	65.718	36.992
605	54.320	61.786	38.129
606	91.148	39.268	39.893
607	8.405	42.593	36.446
608	64.504	26.467	38.559
609	33.487	16.847	40.495
610	31.066	8.443	37.587
611	10.087	7.284	39.049
612	60.251	5.789	40.178
613	17.776	85.038	39.428
614	28.978	85.316	39.088
615	64.460	63.952	36.943
616	36.140	61.712	38.977
617	55.901	53.318	39.466
618	46.785	21.292	38.697
619	13.379	20.372	38.453
620	24.295	5.112	39.161
621	56.048	85.170	37.065
622	77.739	81.249	36.552
623	18.304	70.227	37.858
624	65.846	68.572	34.981
626	25.096	59.787	35.323
627	93.082	59.517	35.981
628	6.230	54.971	38.296
629	88.860	44.370	35.537
630	32.694	43.245	33.163
631	45.693	82.261	35.973
632	48.120	40.229	38.759
633	27.391	70.185	37.512
634	98.573	70.379	37.996
635	27.953	66.911	30.576
636	91.937	66.470	35.655
637	6.092	64.074	32.946
638	96.706	64.885	35.073
639	75.480	60.064	35.676
640	99.562	58.796	38.747
641	61.808	51.288	36.649
642	27.695	78.977	34.785
644	38.754	8.101	38.471
645	108.104	10.156	37.889
647	22.705	81.042	40.969
648	10.962	79.591	37.220
650	44.641	75.203	38.361
652	46.108	62.195	35.331
653	69.624	60.750	37.014
654	20.177	52.725	37.040
655	90.696	8.064	40.634
656	57.338	45.069	40.351
657	77.039	38.156	32.365
658	37.359	33.956	31.623
659	65.063	30.896	41.005
660	71.673	29.714	37.295
661	101.044	32.022	36.607
662	82.490	19.696	37.798
663	62.863	19.001	37.054
664	42.680	16.263	34.141
665	70.377	14.286	36.846
666	67.541	39.197	34.006
667	51.113	7.485	23.245
668	103.679	23.818	37.852
669	11.859	37.226	38.154
670	4.762	78.008	35.291
671	103.592	75.263	40.699
672	59.882	73.237	41.462
673	22.243	73.128	43.555
674	72.641	70.427	41.988
675	85.751	67.930	37.276
676	1.873	67.809	41.630
677	8.179	64.056	41.511
678	27.281	62.437	39.416
679	105.440	80.565	43.249
680	4.990	60.047	40.365
681	34.226	41.904	39.073
682	36.141	28.480	44.411
683	82.684	26.083	40.150
684	54.049	14.400	40.008
685	42.316	85.869	40.964
686	94.259	75.623	39.088
687	21.817	73.939	38.114
688	71.312	64.744	40.016
689	81.181	62.963	39.278
690	71.322	48.155	43.318
691	41.706	60.056	39.506
692	62.696	85.299	42.040
694	85.827	39.193	41.092
695	48.527	16.954	44.081
696	12.898	84.198	40.721
697	34.040	82.398	42.052
698	83.939	74.972	41.030
699	78.525	75.713	41.530
700	31.648	75.026	39.817
701	79.026	68.781	44.154
702	106.155	53.210	40.915
704	38.099	55.406	40.317
705	21.338	39.503	41.007
706	8.181	32.052	40.656
707	98.518	26.509	37.062
708	52.617	24.578	42.109
709	98.408	17.663	42.437
710	39.308	17.982	41.440
711	63.812	14.463	42.306
712	19.286	8.975	43.496
713	68.131	1.018	41.020
714	51.892	45.218	43.907
715	24.423	26.664	41.189
716	33.322	50.627	40.457
717	98.197	47.830	38.402
718	74.486	42.733	38.660
719	61.779	41.477	39.159
720	57.016	38.363	38.014
721	78.901	40.077	42.345
722	66.780	36.483	39.619
723	78.030	29.622	41.397
724	39.776	27.805	38.705
725	58.553	21.709	39.068
726	20.455	18.674	38.680
727	62.465	53.886	40.992
728	109.059	4.124	37.411
729	39.226	79.180	42.443
730	54.557	75.127	39.541
731	55.805	68.759	38.132
732	16.228	63.329	38.317
733	77.577	50.233	38.561
734	47.100	47.324	39.822
735	93.467	48.977	41.063
736	103.338	39.186	37.965
737	73.859	37.533	41.998
739	40.213	50.846	38.357
740	45.087	66.329	40.516
741	81.128	86.301	37.119
742	83.358	47.849	39.795
743	40.901	39.463	38.369
744	69.236	36.048	45.558
745	107.298	35.519	38.420
746	26.907	19.579	42.291
748	35.064	10.897	42.682
749	49.539	3.333	34.501
750	19.724	2.872	41.935
752	67.989	54.587	39.394
753	17.654	45.555	40.817
754	109.311	44.627	43.905
755	109.728	26.016	43.490
756	17.012	30.471	42.005
757	92.309	19.597	40.820
758	47.129	11.791	41.627
759	79.545	8.363	37.539
760	54.128	4.070	41.186
761	6.117	83.654	42.642
762	14.184	53.340	39.047
763	78.735	7.174	25.427
764	41.019	44.811	37.624
765	45.603	4.188	24.594
766	76.176	18.305	9.344
767	25.751	14.890	9.814
768	92.321	10.108	7.095
769	34.246	7.064	9.131
771	30.461	70.265	6.927
772	23.442	69.355	11.122
773	52.439	60.377	7.490
774	79.426	58.821	10.065
775	75.293	50.815	5.859
776	37.427	49.127	9.354
777	108.347	37.335	9.802
778	73.809	30.712	9.413
779	69.880	12.778	5.618
780	7.923	11.055	8.524
784	66.745	69.996	10.141
785	10.996	17.366	9.124
787	39.795	33.156	10.768
788	89.283	33.589	8.644
789	22.090	50.972	10.980
790	89.181	48.158	9.140
791	4.782	47.872	7.284
792	100.898	31.129	8.049
793	107.877	26.167	10.537
794	13.162	25.665	12.354
795	37.855	22.721	10.443
796	27.279	22.279	8.722
797	2.457	17.557	9.826
798	105.024	65.023	9.510
799	51.781	9.793	9.899
801	74.679	76.360	10.331
802	18.786	64.890	8.823
803	73.223	58.817	9.634
804	63.853	56.130	9.057
805	47.654	48.126	7.938
806	90.270	42.330	4.223
807	73.341	44.090	8.196
808	27.529	37.375	7.987
809	73.583	11.508	11.505
810	20.878	58.719	9.132
811	36.725	57.575	8.299
812	93.587	41.034	9.536
814	76.556	25.053	10.866
815	102.631	18.228	8.844
816	77.036	5.254	8.650
817	70.199	81.123	9.564
819	103.495	75.572	4.956
820	14.337	69.938	6.489
821	79.235	68.099	8.758
822	66.484	32.309	11.008
823	62.677	67.796	6.512
824	14.675	52.155	5.060
825	53.532	50.263	6.435
826	49.767	40.347	2.344
827	2.466	39.729	6.361
828	69.922	38.573	6.204
829	47.179	33.349	7.544
830	35.445	31.726	7.196
831	18.145	31.398	5.858
832	39.113	27.410	7.055
833	35.794	64.363	6.554
834	9.468	51.327	9.986
835	80.140	37.488	7.725
836	15.780	36.625	11.119
837	9.459	36.034	7.097
838	53.929	38.702	6.464
839	106.009	31.702	4.865
840	95.421	29.990	9.071
841	51.938	26.588	6.741
842	7.454	23.615	9.025
843	16.926	20.701	10.628
844	44.049	16.751	8.084
845	71.063	17.673	11.454
846	71.855	32.886	5.510
847	97.386	6.622	6.388
848	59.927	86.790	9.336
849	34.426	73.024	8.875
850	72.731	69.420	9.554
851	3.093	60.817	6.747
852	103.672	61.706	3.938
853	8.503	58.673	8.306
854	48.608	54.548	7.394
855	16.594	47.371	8.018
858	68.076	53.433	10.880
859	42.392	65.115	11.102
860	46.570	74.740	9.722
861	32.355	57.143	11.502
862	57.565	55.796	12.056
863	99.851	55.421	14.147
864	14.660	51.692	12.554
865	48.050	40.907	9.594
866	20.243	30.129	10.720
867	71.162	6.540	10.364
868	56.497	4.353	11.756
870	90.814	60.274	11.570
871	32.953	79.972	9.152
872	27.138	53.827	10.689
873	106.296	48.981	13.611
874	85.275	44.980	15.363
875	75.006	46.706	12.407
876	5.943	42.890	10.039
877	35.987	42.088	11.855
878	27.496	31.587	8.575
879	52.929	34.297	10.330
880	48.931	27.029	11.977
881	75.856	64.180	9.579
882	55.801	29.241	13.043
883	66.027	63.448	11.191
884	30.737	64.748	11.164
885	93.961	53.956	11.205
886	52.209	56.210	11.914
887	101.503	46.536	12.456
888	106.045	32.501	12.321
889	43.312	25.053	12.446
890	94.324	25.603	12.559
891	65.772	24.216	13.596
892	69.980	22.732	11.639
893	58.205	21.357	12.854
894	56.124	64.710	10.114
895	80.581	15.735	13.497
896	99.737	9.554	16.494
897	71.753	1.599	15.416
898	90.124	84.914	14.024
900	76.582	82.491	14.014
901	65.216	82.282	12.068
902	54.025	75.262	13.734
903	94.930	65.869	13.032
904	88.593	66.099	12.472
905	45.798	9.105	11.590
906	32.157	25.811	7.883
907	110.049	16.871	11.215
908	13.427	2.318	12.155
909	62.010	30.262	12.380
910	50.092	21.568	10.411
911	93.018	14.752	9.036
912	16.900	11.233	12.613
913	38.948	4.559	10.857
914	107.681	5.020	13.428
915	82.799	4.027	9.914
916	11.071	65.480	9.403
917	83.924	59.862	11.612
918	66.929	40.338	9.485
919	30.726	45.504	7.917
920	25.362	42.585	10.013
921	64.104	45.105	10.208
922	59.407	37.654	10.517
923	83.100	21.599	8.502
924	87.835	6.877	10.426
925	20.590	9.022	8.354
926	24.057	4.377	9.832
927	49.715	80.640	5.859
928	15.170	82.379	8.884
929	11.582	45.859	11.589
930	63.788	12.262	15.003
931	102.778	41.001	11.977
932	84.451	51.149	10.157
933	38.980	81.780	5.810
934	3.111	71.049	8.389
935	14.978	58.033	11.121
936	81.226	49.431	6.755
937	74.558	36.616	10.273
938	31.696	23.951	15.165
939	35.605	13.522	10.188
940	50.126	4.874	9.594
941	64.968	5.269	12.381
942	57.162	42.998	11.657
943	29.934	2.057	9.101
944	58.512	79.039	11.015
945	106.089	80.204	10.766
946	100.538	79.508	11.465
947	18.010	73.452	11.141
948	69.147	75.489	10.631
949	40.622	71.782	9.590
950	18.586	72.248	4.654
951	12.318	73.912	10.951
952	42.943	58.337	10.963
953	22.149	80.113	9.709
954	35.535	18.445	6.340
955	15.290	14.803	5.783
956	77.633	12.572	9.054
957	75.426	58.439	5.031
958	43.237	56.589	4.080
959	52.040	45.431	3.549
960	105.202	39.597	5.072
962	14.882	24.088	4.929
963	53.884	20.548	3.589
964	19.970	19.311	4.462
965	97.155	15.334	4.053
966	16.430	57.911	5.401
973	24.645	71.157	5.776
979	5.077	63.354	2.430
981	46.871	19.803	3.649
982	3.063	13.641	5.478
983	81.927	9.347	5.131
985	99.646	85.626	6.013
986	55.908	77.751	4.921
987	6.483	74.125	5.543
990	31.576	59.956	5.372
992	10.581	44.411	4.226
993	26.540	18.391	4.212
994	44.839	12.803	2.065
995	74.874	8.624	5.090
996	14.043	85.084	3.370
998	11.295	71.238	1.628
999	20.440	61.770	3.793
1000	99.155	62.907	6.132
1001	5.481	53.733	6.378
1007	66.735	73.527	4.450
1010	105.117	51.575	6.294
1012	96.392	44.721	2.977
1013	63.236	43.657	4.836
1014	66.955	80.067	2.278
1017	3.219	33.556	3.912
1022	63.554	5.913	4.250
1023	62.876	4.212	21.952
1026	27.990	40.567	3.403
1027	24.647	77.795	1.753
1029	24.131	32.771	3.920
1032	29.476	24.496	3.583
1033	2.754	21.178	4.055
1034	58.860	11.642	4.279
1035	34.080	1.855	3.136
1042	76.122	40.360	4.387
1043	92.324	34.448	2.946
1044	85.988	35.798	4.596
1045	22.510	28.032	2.979
1050	5.436	66.202	11.626
1051	84.157	25.017	2.926
1054	31.322	53.924	4.583
1055	69.735	54.911	5.075
1056	60.017	50.604	6.493
1057	80.347	44.262	6.705
1058	40.844	45.247	2.988
1059	38.836	40.184	5.351
1060	33.510	38.178	6.899
1061	99.304	38.052	9.369
1062	25.077	56.528	3.885
1063	22.238	38.300	5.028
1065	21.723	24.884	8.571
1066	101.256	24.724	8.956
1067	59.303	22.882	7.842
1068	44.584	4.434	6.358
1070	19.868	84.910	6.549
1071	17.739	77.001	6.377
1073	57.673	34.491	6.308
1074	57.471	71.846	4.586
1075	44.057	67.622	5.794
1076	99.060	68.768	8.495
1077	48.138	11.408	6.833
1078	62.291	9.153	8.984
1079	26.663	76.659	8.450
1080	82.156	73.908	6.454
1081	89.568	67.744	6.093
1082	51.630	70.760	6.616
1083	84.290	61.673	6.102
1084	26.158	64.090	5.373
1085	57.672	56.036	5.005
1086	92.326	63.089	6.969
1088	26.235	49.256	5.492
1089	44.383	28.556	8.754
1090	68.104	20.132	6.547
1091	8.990	18.580	4.084
1092	66.391	14.151	9.548
1093	51.625	16.251	6.957
1094	12.099	6.366	8.757
1095	18.760	2.686	5.019
1097	98.347	51.798	6.803
1098	103.183	26.334	3.537
1100	88.901	57.203	4.920
1101	70.698	46.562	5.072
1102	85.620	40.180	7.070
1103	8.557	30.782	5.570
1104	28.302	10.334	5.644
1105	8.978	1.576	4.019
1106	90.560	5.230	3.562
1107	33.515	81.496	3.617
1108	61.590	76.359	5.639
1109	11.195	79.081	2.513
1110	10.229	61.702	4.231
1111	98.012	73.745	5.914
1112	75.092	67.314	3.053
1114	39.344	60.741	3.878
1115	63.133	61.055	2.898
1116	59.330	60.686	8.373
1117	101.950	56.966	8.962
1118	87.820	51.605	4.178
1119	102.134	45.267	4.139
1120	34.752	45.144	3.649
1122	55.192	65.527	4.925
1123	1.360	66.518	4.246
1124	104.885	69.637	6.433
1125	21.353	43.790	5.773
1128	67.028	26.035	4.486
1129	91.339	25.629	6.682
1130	108.528	20.015	6.791
1131	96.292	21.677	6.970
1133	20.818	12.775	4.276
1134	50.299	65.303	6.426
1135	37.391	12.576	5.552
1136	3.291	6.498	6.539
1137	56.784	6.308	5.316
1139	103.839	6.399	7.091
1140	26.089	3.461	3.338
1144	77.308	81.834	4.891
1145	107.101	13.122	7.414
1146	54.953	69.356	13.228
1148	60.250	72.990	12.464
1149	87.255	8.746	20.848
1150	34.691	74.943	21.891
1151	55.305	71.321	19.099
1152	24.371	65.328	20.749
1153	86.079	60.745	16.978
1154	65.241	56.321	22.727
1155	63.565	49.350	20.372
1156	97.709	43.870	17.077
1157	70.206	41.005	18.102
1158	81.636	30.405	23.015
1159	14.640	18.731	22.076
1160	6.928	21.699	20.404
1161	59.106	21.722	21.551
1162	77.207	21.930	21.112
1163	34.518	18.947	19.919
1164	27.972	19.355	19.853
1165	71.833	8.041	21.327
1166	26.526	3.250	19.518
1167	82.513	83.686	22.122
1168	37.015	9.995	20.579
1169	95.814	11.092	20.693
1170	69.966	31.387	21.653
1171	42.583	39.805	22.648
1172	27.051	80.277	19.622
1173	107.404	72.382	19.609
1174	16.913	70.216	20.388
1175	86.034	69.088	17.682
1176	72.301	60.489	19.091
1177	6.651	49.056	24.512
1178	45.706	47.147	17.902
1179	25.183	34.962	19.374
1181	94.604	76.119	18.375
1182	40.275	14.353	23.854
1184	9.401	76.890	20.510
1185	102.589	70.024	21.842
1186	32.262	56.353	23.915
1187	18.339	48.297	20.572
1188	101.811	46.397	23.493
1189	91.986	45.698	18.923
1190	21.042	41.097	20.600
1191	79.065	39.688	21.852
1192	18.805	3.969	22.827
1193	75.515	73.464	21.517
1194	29.229	72.785	17.146
1195	67.219	63.167	18.441
1197	109.926	27.438	17.507
1198	64.039	21.406	20.410
1199	79.415	10.824	20.501
1201	29.733	66.592	17.870
1202	94.292	69.386	17.714
1203	4.553	66.143	18.457
1204	107.397	60.682	20.026
1205	80.578	34.295	18.154
1206	21.952	55.781	22.559
1207	86.709	43.181	24.012
1208	97.090	34.273	20.250
1209	87.985	32.252	18.354
1210	6.796	31.239	18.415
1211	29.276	29.943	19.472
1212	44.500	28.284	20.593
1213	92.441	27.157	18.626
1214	24.396	24.571	19.076
1215	19.827	18.631	17.338
1216	105.231	44.522	19.718
1217	76.807	83.186	25.596
1218	19.044	33.253	19.429
1219	34.518	37.392	20.225
1220	6.792	53.717	20.655
1221	36.127	51.009	21.843
1222	84.282	38.005	19.551
1223	9.602	37.501	20.017
1224	12.158	28.861	17.299
1225	100.183	28.794	19.581
1226	75.325	27.768	21.962
1227	71.409	24.293	19.192
1228	94.063	21.180	19.983
1229	53.221	37.661	20.131
1230	51.323	19.001	20.448
1231	48.543	12.482	19.788
1232	28.035	9.594	19.297
1233	20.857	3.275	16.742
1234	103.000	83.435	16.980
1235	14.831	82.235	22.581
1236	5.323	72.106	19.566
1237	39.337	60.509	20.072
1239	3.319	39.259	23.482
1240	102.954	14.201	22.964
1241	55.487	83.141	23.094
1242	33.567	84.353	23.022
1243	17.027	11.382	23.265
1244	32.338	42.269	20.445
1245	49.769	39.816	24.819
1246	13.948	31.353	21.680
1247	2.896	31.175	23.991
1248	99.334	25.451	23.607
1249	34.316	23.413	23.105
1250	24.863	13.915	22.492
1252	46.295	86.310	21.591
1253	41.947	52.114	16.173
1254	71.318	70.426	25.227
1255	87.194	59.513	23.342
1256	80.416	56.573	23.665
1257	90.762	56.782	20.167
1258	46.883	54.360	22.154
1259	12.215	50.770	23.121
1260	25.847	45.349	20.871
1261	3.334	42.557	20.126
1262	15.749	38.224	20.768
1265	22.875	28.200	24.327
1266	7.106	61.511	22.954
1267	98.951	74.726	26.006
1268	35.472	69.221	12.267
1269	87.888	72.906	23.163
1270	59.135	66.732	24.105
1271	66.128	67.463	22.876
1272	96.421	52.773	23.034
1274	42.293	50.485	24.626
1275	88.938	12.080	28.417
1276	41.845	8.401	24.278
1277	82.245	76.332	21.500
1278	5.273	7.838	25.448
1279	100.972	64.805	24.009
1280	58.183	39.320	24.391
1281	103.240	31.168	24.511
1282	44.357	33.210	24.216
1283	10.525	15.070	22.033
1284	65.364	15.266	22.064
1286	9.496	82.466	24.864
1287	4.768	76.685	25.731
1288	27.132	77.143	23.948
1289	2.083	20.080	16.863
1290	15.828	26.225	22.833
1291	44.209	18.786	19.576
1292	105.662	80.349	21.358
1294	47.347	79.539	23.907
1295	61.571	78.706	23.073
1296	42.116	74.880	23.827
1298	100.895	65.386	17.150
1299	80.698	62.780	23.084
1300	58.993	61.365	22.051
1302	51.870	61.575	21.908
1303	63.984	40.188	21.468
1304	105.659	38.296	22.886
1305	100.173	39.882	23.461
1306	63.316	33.012	21.891
1307	34.632	31.012	22.362
1308	57.441	31.883	23.737
1309	9.324	26.439	21.461
1310	82.314	24.545	23.715
1311	30.556	13.915	21.396
1312	12.917	44.593	22.840
1313	87.287	23.044	17.979
1314	92.512	5.168	21.076
1315	52.350	44.765	22.566
1316	81.901	18.487	20.346
1317	20.656	16.661	23.473
1318	108.427	17.415	17.823
1319	56.363	14.851	21.158
1321	59.580	8.784	19.038
1322	47.334	6.631	17.402
1323	21.921	8.196	23.239
1324	55.536	4.674	24.027
1325	74.314	44.909	22.947
1326	10.327	2.247	20.645
1327	19.086	76.959	22.328
1328	70.035	78.330	23.576
1329	9.849	71.778	24.957
1331	11.261	66.328	21.808
1332	96.560	58.593	22.595
1333	80.002	55.033	17.544
1334	88.719	52.329	22.181
1335	83.065	49.264	22.987
1337	70.595	18.352	20.853
1338	37.682	76.338	28.282
1339	65.443	9.485	18.760
1340	15.229	69.658	14.158
1341	19.439	60.972	14.319
1342	36.265	54.120	14.136
1344	15.718	53.901	17.211
1345	5.589	52.248	14.571
1346	33.623	49.757	16.450
1347	90.790	41.146	15.568
1348	10.728	40.710	13.572
1349	75.069	41.880	14.677
1350	53.085	38.997	14.615
1351	35.997	28.135	14.331
1352	78.272	28.096	15.051
1353	105.479	21.925	14.914
1354	90.112	18.477	12.167
1355	63.261	17.122	8.914
1356	59.004	3.418	17.353
1358	8.046	83.170	11.028
1359	76.893	72.720	13.564
1360	12.981	79.205	14.866
1361	20.453	82.752	13.850
1362	85.393	11.333	14.796
1363	41.892	31.840	17.295
1364	56.670	33.287	18.599
1365	7.009	19.021	13.881
1366	40.962	13.056	16.037
1367	103.297	15.865	16.599
1368	90.921	13.207	14.130
1369	32.718	4.036	15.967
1370	42.506	82.361	15.867
1371	81.504	77.668	15.995
1372	98.342	18.625	19.919
1373	89.134	80.084	16.884
1374	19.802	66.836	14.914
1375	68.793	58.802	14.415
1376	61.666	43.216	15.588
1377	108.410	37.638	15.148
1378	6.340	37.819	14.560