ITEM: TIMESTEP
13.270170912209107
ITEM: NUMBER OF ATOMS
1498
ITEM: BOX BOUNDS
1.0317460317460316 110.39682539682539
1.0317460317460316 87.28571428571428
2.5 48.0
ITEM: ATOMS id x y z
1	91.409	37.491	32.245
2	71.842	35.002	31.506
3	92.671	30.098	31.478
4	76.047	27.233	33.432
5	53.307	21.393	31.314
6	41.168	13.004	29.974
7	58.793	14.564	34.452
8	48.386	86.667	34.366
9	20.105	83.087	35.114
10	67.681	80.722	33.235
11	89.234	77.698	30.586
12	98.379	73.467	32.367
13	58.510	60.980	32.661
14	24.092	53.470	31.676
16	5.559	40.906	30.806
17	71.836	41.597	31.047
18	107.392	33.372	32.347
19	108.006	16.072	31.031
20	81.186	38.066	36.891
21	49.891	40.381	31.904
22	6.122	46.676	31.353
23	87.467	56.155	33.265
24	23.456	71.333	33.373
25	52.007	57.680	32.451
26	86.539	57.321	39.059
27	14.268	49.517	32.070
28	62.085	45.709	33.125
29	107.495	41.101	34.972
30	71.667	30.450	27.915
31	11.075	24.477	36.072
32	21.108	10.618	34.750
33	46.978	16.092	32.140
34	12.020	6.300	32.341
37	103.976	83.788	33.457
38	32.220	82.486	33.906
39	36.529	79.644	34.575
41	37.847	63.189	32.377
42	40.538	58.616	31.584
43	66.368	57.384	32.097
44	30.252	3.675	34.253
45	95.995	14.480	33.488
46	83.101	4.737	30.557
47	61.411	78.602	30.196
48	70.343	86.096	29.998
49	99.193	87.195	27.937
50	30.148	72.093	32.002
51	81.593	71.809	31.065
52	35.614	72.570	31.706
53	64.993	71.331	30.080
54	95.823	67.845	28.998
55	1.869	64.618	29.056
56	27.590	58.170	30.684
57	1.702	14.673	30.537
58	20.984	58.274	30.046
59	56.558	45.340	31.782
60	47.645	36.141	29.589
61	49.208	31.627	31.989
62	1.222	24.374	32.678
63	87.206	19.593	29.957
64	37.597	21.340	28.818
65	12.820	18.085	31.660
66	65.388	16.431	28.214
67	6.729	81.863	30.317
68	75.472	51.926	31.887
69	56.426	79.364	34.629
70	85.220	34.037	32.590
71	68.380	44.178	27.442
72	10.367	72.633	33.644
73	109.597	71.214	30.279
74	44.676	62.528	29.846
75	98.011	27.228	32.572
76	80.773	22.682	30.606
77	52.320	15.662	33.054
78	14.344	11.415	29.977
79	36.563	11.059	30.798
80	53.801	9.519	29.837
81	41.430	39.742	30.465
82	80.805	10.030	31.596
83	102.138	6.252	32.915
84	92.626	4.530	30.786
85	61.566	3.353	28.578
86	77.712	86.160	31.763
87	85.465	76.267	26.073
88	103.328	70.454	28.611
89	104.724	64.773	31.756
90	67.879	62.937	33.194
91	20.514	52.988	28.062
92	72.645	8.051	33.309
93	75.542	3.968	30.454
94	28.461	10.574	33.826
95	83.936	13.430	31.611
96	50.921	28.445	36.409
97	91.802	24.162	35.251
98	72.072	22.401	34.810
99	67.405	22.097	36.256
100	96.647	21.173	35.003
101	74.987	15.953	34.866
102	37.850	15.245	36.130
103	10.914	12.028	34.255
104	97.486	5.430	36.029
105	106.486	28.280	35.422
106	17.070	6.835	36.165
108	9.065	85.140	34.507
109	75.951	76.027	34.692
110	58.795	74.047	34.606
111	16.709	73.766	32.680
112	37.103	67.707	35.700
113	17.560	58.755	33.994
114	95.825	54.444	29.986
115	89.949	51.604	35.102
116	67.497	5.257	36.503
117	26.403	44.091	34.079
118	79.749	30.821	34.079
119	97.533	35.210	37.603
120	93.401	44.689	31.368
121	8.481	34.103	34.747
122	58.037	30.518	36.915
123	90.370	30.367	36.236
124	28.268	23.752	36.625
125	34.338	22.897	38.664
126	13.979	12.276	40.625
127	43.987	5.606	37.561
129	51.458	35.288	36.354
131	83.389	78.909	37.192
132	65.123	74.698	34.962
133	39.998	73.400	36.767
134	92.775	72.218	34.033
135	6.458	71.137	36.665
136	31.050	65.033	35.911
137	12.486	60.623	34.472
138	46.116	56.075	36.448
139	51.746	47.645	36.096
140	65.089	85.091	36.088
141	39.611	83.611	30.035
142	63.287	34.776	32.446
143	86.645	17.909	39.303
144	46.676	11.540	35.889
145	2.678	6.887	33.058
147	95.582	78.465	33.648
148	86.122	74.064	34.162
149	50.820	70.869	31.928
150	78.998	68.657	34.954
151	45.271	68.502	33.221
152	17.428	64.285	33.550
153	25.772	30.311	34.583
154	53.514	64.823	31.690
155	41.216	52.423	33.436
156	36.309	45.861	32.736
157	34.050	25.052	33.246
158	66.125	29.416	33.799
159	44.346	25.873	34.953
161	17.058	22.228	34.902
162	103.288	17.971	35.052
163	23.470	17.487	31.812
164	90.669	50.319	28.956
165	17.636	32.839	35.080
166	34.254	31.502	35.317
167	100.342	43.261	32.965
168	101.405	14.115	38.048
169	88.785	13.942	34.876
170	86.696	8.660	36.438
172	102.855	63.628	36.798
173	35.076	51.669	34.063
174	104.115	46.992	36.032
175	71.417	48.702	36.577
176	18.100	44.970	32.100
177	24.098	37.892	32.912
178	20.012	26.503	36.616
179	85.636	83.974	34.230
180	72.633	68.716	34.544
181	81.823	66.756	28.856
183	86.510	62.584	35.932
184	2.761	57.646	31.722
185	104.124	56.345	34.151
186	9.375	50.727	33.424
187	74.935	45.610	33.725
188	29.685	16.805	34.876
189	81.797	44.908	35.400
190	2.134	79.481	30.032
191	42.555	74.100	30.937
192	23.908	1.783	25.984
193	56.032	82.304	29.173
194	103.477	77.918	26.381
196	56.184	46.952	25.865
197	98.470	45.816	27.696
198	61.821	44.558	26.359
199	46.045	44.783	25.326
200	63.721	37.421	25.572
201	12.770	21.933	27.206
202	53.618	16.116	27.110
203	32.260	15.737	28.229
204	101.409	8.451	26.950
205	11.155	8.560	26.798
206	86.877	82.649	26.655
207	108.367	66.003	26.444
208	12.440	58.305	21.826
209	52.163	55.293	25.606
210	32.034	48.391	24.029
211	32.515	3.212	27.328
212	68.288	5.041	29.475
213	33.363	8.680	26.115
214	95.567	7.961	27.527
215	54.811	33.922	30.035
216	92.594	16.388	24.579
218	50.018	80.694	27.944
219	17.458	79.768	30.049
220	92.554	81.774	25.753
221	73.925	77.284	29.849
222	14.084	76.077	26.480
223	66.000	74.819	25.458
224	92.567	46.828	25.212
225	76.421	70.880	27.329
226	72.181	63.641	24.821
227	103.599	59.012	22.889
228	14.778	56.578	27.454
229	17.374	46.646	25.719
230	105.468	44.328	29.018
231	19.459	40.942	26.591
232	108.360	32.871	26.201
233	7.584	20.471	26.841
234	74.494	12.370	26.855
235	28.289	69.049	26.542
236	8.098	37.988	26.310
237	82.077	35.682	27.492
238	20.871	32.811	28.464
239	3.734	12.906	21.788
240	107.589	8.773	26.751
241	71.587	83.685	24.721
242	100.278	82.920	22.759
243	89.815	82.903	21.519
244	42.815	80.133	27.124
245	27.528	63.233	24.643
246	44.597	62.927	23.909
247	71.417	52.177	26.576
248	81.828	13.115	25.429
250	69.729	37.484	25.207
251	28.708	25.158	23.327
252	53.050	27.466	27.341
253	70.905	20.089	25.075
254	79.837	19.617	24.895
255	85.663	17.772	23.971
256	98.175	15.090	28.032
257	48.643	14.969	26.190
258	67.893	10.100	25.570
259	38.325	44.861	22.711
260	76.757	35.798	26.484
261	1.816	18.174	24.671
262	39.903	26.467	25.547
263	80.375	28.387	27.793
264	94.424	22.463	27.179
265	66.206	23.929	25.114
266	43.829	21.364	27.364
267	25.246	17.157	26.886
268	19.584	85.926	24.568
269	104.911	83.974	26.104
270	64.125	82.763	24.970
271	49.796	72.258	22.941
272	50.100	20.867	26.171
273	22.213	70.941	27.397
274	1.550	66.263	23.487
275	49.623	66.562	23.316
276	66.849	60.413	26.432
277	24.090	49.939	24.649
278	74.983	50.254	22.237
279	87.819	35.815	25.962
280	38.112	37.496	25.949
281	50.997	33.005	25.142
282	60.256	26.529	26.594
283	7.513	66.540	26.256
284	76.657	42.133	27.911
285	80.155	47.717	27.504
286	58.821	51.951	24.192
287	93.114	31.602	25.114
288	15.623	26.848	29.314
289	104.412	24.683	30.902
290	21.784	22.313	30.294
291	46.804	7.686	31.077
292	32.154	78.559	27.114
293	55.069	68.187	25.611
294	32.657	64.151	29.363
295	84.138	50.471	30.455
296	96.955	34.808	29.140
297	82.740	41.313	28.601
298	43.320	31.361	30.577
299	85.545	30.111	28.943
300	88.503	24.819	29.592
301	48.284	24.446	30.924
302	100.163	20.529	29.988
303	106.498	17.924	25.483
304	59.580	17.240	29.613
305	76.743	17.843	29.588
306	22.283	13.060	28.558
307	63.244	31.375	26.842
308	8.070	14.437	28.428
309	17.165	36.351	30.338
310	31.090	41.156	28.799
311	93.936	72.457	23.625
312	89.746	70.995	29.000
313	11.448	67.023	31.940
314	38.496	61.882	26.762
315	3.306	53.972	25.644
316	66.230	51.380	31.853
317	13.505	41.678	33.769
318	59.202	39.894	30.011
319	59.573	23.701	33.340
320	95.429	40.200	29.670
321	75.338	24.290	26.486
322	5.889	1.396	25.963
324	81.620	84.475	28.844
325	54.891	74.685	29.732
326	62.114	64.452	29.970
327	9.673	60.299	29.090
328	33.766	58.624	29.489
329	60.820	50.273	29.685
330	43.765	46.423	30.167
331	68.944	20.514	30.176
332	79.269	79.868	31.160
333	63.993	10.567	29.514
335	79.974	54.661	30.874
336	8.667	54.596	29.456
337	10.217	44.104	29.173
338	26.769	37.212	27.078
339	7.546	25.624	27.486
340	29.355	21.600	27.836
341	109.885	22.489	26.983
342	42.660	5.270	29.416
343	11.560	2.613	27.028
344	108.236	57.092	25.510
345	84.651	0.548	24.733
346	27.569	82.939	26.623
348	39.045	68.516	28.319
349	95.496	62.006	27.130
350	20.038	61.974	23.760
351	1.967	59.605	25.360
352	61.573	56.916	27.165
353	38.777	53.560	26.902
354	101.718	51.964	28.178
356	16.670	5.629	28.613
357	76.574	59.870	28.373
358	14.707	62.094	25.323
359	24.180	76.534	29.903
360	32.772	69.761	23.006
361	21.983	63.686	30.524
362	83.564	61.386	29.054
363	46.126	56.127	28.954
364	49.520	47.640	30.377
365	23.918	46.216	29.174
366	107.833	38.891	29.394
367	31.995	33.251	27.114
368	102.740	58.314	28.452
369	101.109	34.521	32.130
370	89.047	27.948	23.513
371	32.145	27.837	28.802
372	17.730	19.118	28.179
373	58.710	11.677	24.882
374	29.132	7.165	29.074
375	88.386	5.487	26.974
376	110.133	1.294	28.389
377	86.634	2.966	34.051
378	48.253	70.407	27.456
379	7.217	32.271	27.820
380	99.042	49.263	33.115
381	28.483	48.051	37.182
384	80.798	79.554	44.631
385	67.216	75.619	45.970
386	9.568	71.399	43.067
387	83.696	68.062	46.171
388	85.547	60.987	43.905
389	53.888	58.899	42.997
391	87.603	51.373	42.530
392	27.003	51.275	43.737
394	94.699	44.613	46.216
395	58.364	45.799	44.707
396	46.319	43.314	43.897
397	56.046	39.223	44.241
398	45.404	24.092	45.079
399	67.811	22.537	42.181
400	58.204	19.481	44.046
401	77.337	13.954	45.536
402	53.739	10.403	44.436
403	29.734	26.284	43.402
405	27.804	46.175	43.443
406	59.118	78.919	39.750
410	80.638	44.057	45.986
411	94.416	31.572	42.904
412	13.608	17.182	45.229
413	88.857	17.381	45.056
414	70.200	15.963	43.389
415	102.257	12.170	43.387
416	28.202	13.546	43.279
417	109.931	74.238	43.546
418	39.583	67.181	43.187
419	56.394	66.259	44.052
422	45.390	50.547	42.959
423	21.241	53.148	45.001
424	15.432	52.184	45.728
425	22.472	47.549	45.650
426	82.842	8.813	44.146
427	63.438	10.393	43.627
428	73.312	6.478	38.621
429	45.248	78.509	45.087
430	15.057	72.047	43.446
431	99.827	72.223	42.909
432	60.169	60.224	41.441
433	11.790	57.983	41.876
434	96.170	38.152	46.009
435	48.444	37.694	44.838
436	15.097	35.362	43.454
437	27.505	32.164	41.070
438	64.297	29.716	44.858
439	54.369	81.099	42.509
440	86.270	29.962	43.402
441	7.919	25.877	43.371
442	96.901	5.206	43.445
443	87.552	5.719	46.929
444	47.401	4.300	42.056
445	39.247	3.272	41.459
446	72.058	83.619	40.582
447	9.649	77.180	43.503
448	69.697	78.444	39.580
449	75.083	60.591	42.088
450	56.767	28.554	42.847
452	26.142	5.235	45.236
453	75.273	24.728	39.265
454	15.988	77.636	43.529
455	40.558	74.351	43.362
456	48.777	73.545	42.478
457	66.693	70.389	40.957
458	18.722	68.278	43.582
459	106.169	68.174	41.860
460	47.930	65.431	45.616
461	96.055	65.577	42.511
462	33.193	59.119	46.251
463	7.284	11.375	42.666
464	97.599	55.094	43.706
465	102.962	47.622	41.108
466	9.655	46.629	41.093
467	44.491	34.860	42.354
468	101.335	31.578	44.000
469	48.953	28.486	44.594
471	71.748	27.486	42.056
473	23.190	22.588	44.012
474	10.026	52.057	42.859
475	23.031	78.003	46.231
476	66.529	83.892	45.674
477	103.887	86.092	44.456
479	61.804	36.624	45.594
485	80.760	29.212	47.083
488	89.009	25.968	40.703
489	7.015	15.523	47.085
490	58.367	10.532	47.636
491	87.277	12.376	46.967
493	22.815	86.978	44.291
494	4.257	72.937	46.365
495	28.374	64.469	46.973
497	81.663	51.710	45.530
498	99.500	22.594	47.550
499	98.136	49.843	46.141
500	66.023	58.216	44.122
501	47.839	56.998	46.389
504	91.221	57.590	42.281
511	17.187	58.103	46.662
513	35.480	3.732	47.734
514	41.284	5.071	46.205
516	18.825	82.713	45.398
517	87.101	77.852	46.061
518	55.895	76.424	46.064
519	83.581	73.516	42.290
520	74.303	67.680	47.239
521	27.501	70.142	47.088
522	42.258	16.016	46.387
523	28.879	57.153	40.805
524	16.926	46.220	46.684
525	4.006	41.766	46.731
526	83.047	17.826	46.089
528	95.527	9.983	47.692
530	59.961	3.636	45.143
531	29.800	84.586	45.012
532	99.344	81.251	44.352
533	35.271	64.238	44.645
534	102.418	63.672	42.958
535	33.489	24.294	46.935
536	20.519	61.796	44.045
537	107.347	39.395	44.474
539	30.843	39.585	42.602
540	84.804	23.930	44.940
544	68.075	5.757	44.967
545	14.307	1.816	45.585
546	56.691	51.960	45.451
547	36.032	41.039	47.082
550	108.263	32.920	44.413
551	52.608	33.045	42.085
552	5.449	21.290	45.009
553	20.151	16.206	45.014
555	105.919	4.704	44.529
556	48.785	86.506	43.985
557	73.538	76.244	46.420
558	28.519	79.078	45.167
559	77.536	24.818	46.634
560	87.910	72.088	45.925
561	63.256	66.767	44.443
562	14.620	64.508	44.026
563	75.844	54.309	44.554
564	36.686	46.992	46.321
565	26.523	42.587	39.808
566	9.641	40.552	44.347
568	22.326	31.878	46.021
569	38.717	31.194	46.201
570	34.747	71.235	43.841
571	97.083	53.776	36.666
572	109.639	47.804	37.858
573	66.966	41.889	42.936
574	4.738	28.363	37.375
575	4.677	14.176	34.456
576	63.953	12.531	35.017
577	82.237	12.838	40.575
578	52.605	9.117	36.839
580	27.946	76.869	38.978
581	108.498	74.592	36.478
582	80.437	58.196	38.679
583	43.571	32.596	37.176
584	32.631	55.956	36.231
585	3.232	48.066	36.293
586	97.363	41.435	38.014
587	29.522	34.580	36.097
588	83.809	33.077	39.086
589	85.034	25.031	34.467
590	6.503	19.272	34.632
591	52.509	20.975	38.512
592	75.239	12.028	40.178
593	58.880	11.885	39.938
594	22.798	47.970	39.153
595	25.515	11.117	39.121
596	37.043	35.880	42.418
597	64.357	48.022	38.963
598	7.283	17.279	40.000
599	83.172	4.902	40.301
600	93.586	80.727	40.903
601	100.890	83.664	39.325
603	90.780	69.509	41.045
604	22.618	65.392	39.862
605	54.692	61.174	37.666
606	91.967	39.696	39.544
607	7.273	41.765	37.090
608	64.017	27.714	40.103
609	32.781	17.471	39.999
610	31.030	7.732	38.443
611	9.141	7.203	38.099
612	60.048	5.991	38.528
613	18.420	85.332	40.206
614	30.147	84.684	39.492
615	64.118	62.999	36.453
616	35.724	62.358	39.784
617	56.364	54.203	39.734
618	46.625	21.774	37.608
619	13.472	18.625	39.141
620	24.972	5.392	37.579
621	56.656	84.569	37.951
622	78.525	81.064	36.674
623	17.662	68.196	36.846
624	65.293	68.691	34.996
625	106.268	68.943	35.421
626	24.529	59.817	35.329
627	93.021	59.042	37.128
628	6.935	54.737	38.381
629	88.511	44.734	36.191
630	32.797	42.385	34.031
631	46.592	81.973	36.298
632	46.844	38.724	37.888
633	27.312	70.553	38.792
634	99.041	70.380	37.894
635	27.132	66.931	32.075
636	91.925	65.642	35.370
637	5.393	64.182	33.151
638	97.094	63.029	36.011
639	76.057	60.198	34.818
640	100.992	57.525	38.443
641	60.655	50.415	35.367
642	28.250	77.608	33.331
644	36.358	8.761	37.797
645	108.071	9.793	37.539
647	23.127	82.123	41.746
648	10.334	79.644	37.885
649	1.222	74.554	33.420
650	45.368	74.686	38.989
652	46.583	61.753	36.020
653	69.696	59.512	37.058
654	19.162	52.401	36.637
655	91.487	8.465	40.975
656	57.492	46.274	39.546
657	77.674	37.485	32.136
658	37.857	34.872	32.082
659	65.631	32.245	39.076
660	71.135	30.402	35.644
661	101.627	30.718	37.119
662	81.403	20.439	37.925
663	61.930	17.382	37.910
664	43.510	16.842	35.497
665	69.467	14.513	37.385
666	66.044	40.070	33.722
667	51.335	7.143	23.893
668	105.059	23.087	38.025
669	11.792	36.193	38.998
670	5.039	78.213	34.589
671	103.598	75.525	40.884
672	60.567	72.520	40.934
673	22.653	72.935	42.944
674	73.215	71.064	42.093
675	84.616	69.034	37.163
676	2.174	67.834	41.295
677	8.279	64.082	42.003
678	27.255	62.359	41.167
679	105.995	81.057	43.901
680	5.133	60.563	39.370
681	35.535	43.276	39.705
682	35.600	29.195	42.402
683	82.507	25.596	40.489
684	53.288	14.846	40.628
685	42.269	84.988	41.009
686	92.500	74.733	38.686
687	20.567	73.967	37.496
688	70.892	65.075	40.088
689	80.381	64.034	40.962
690	72.157	48.834	42.122
691	42.077	59.623	39.378
692	62.296	86.116	42.552
694	86.057	39.812	40.542
695	47.830	15.640	43.669
696	12.619	84.291	41.003
697	34.037	82.435	42.316
699	77.955	75.220	41.605
700	32.424	75.262	40.478
701	79.148	69.007	42.597
702	106.579	53.133	40.029
703	29.858	1.188	40.579
704	37.385	54.818	40.447
705	22.021	38.824	41.563
706	7.606	32.335	40.293
707	99.714	26.716	39.953
708	52.618	24.879	43.282
709	97.948	18.140	42.957
710	40.653	18.160	41.443
711	64.526	15.132	42.508
712	19.387	8.085	42.408
713	67.295	1.210	42.091
714	51.301	45.597	42.381
715	25.244	26.892	40.080
716	32.806	50.272	40.133
717	98.103	48.322	39.046
718	73.959	44.105	39.150
719	61.795	41.773	38.882
720	56.219	39.035	36.587
721	79.938	39.344	42.160
722	64.958	37.620	40.272
723	77.880	30.709	40.447
724	40.477	26.537	39.565
725	61.438	22.247	39.419
726	19.393	17.698	39.036
727	62.673	54.300	40.672
728	108.253	3.040	37.500
729	38.255	79.556	40.169
730	54.967	75.217	40.560
731	54.465	69.942	38.657
732	16.903	61.892	38.796
733	78.248	50.885	38.484
734	46.661	48.799	38.628
735	91.869	49.068	41.533
736	103.610	39.153	38.614
737	72.417	38.987	41.541
739	41.252	51.249	39.211
740	44.102	66.531	39.583
741	80.752	86.224	37.401
742	83.493	48.742	39.415
743	41.112	39.759	38.384
744	67.880	37.051	45.104
745	109.208	33.609	38.816
746	27.956	19.615	41.792
748	36.112	11.906	42.955
749	47.534	1.773	35.086
750	20.681	2.557	41.415
752	68.918	53.268	40.719
753	18.095	45.710	40.507
754	109.336	45.346	42.441
755	110.119	26.410	42.824
756	18.368	28.141	41.810
757	92.653	19.964	40.410
758	46.601	9.725	41.194
759	78.755	7.868	37.621
760	53.897	4.357	42.162
761	6.676	83.958	41.397
762	14.782	52.226	39.222
763	77.233	7.575	25.379
764	41.868	46.241	36.851
765	45.989	3.086	24.801
766	76.580	17.572	7.079
767	26.658	15.050	9.388
768	93.377	9.123	6.504
769	34.978	6.648	8.687
771	30.389	69.923	7.877
772	23.985	68.981	10.923
773	52.016	61.171	8.222
774	79.898	57.658	10.080
775	74.763	50.273	6.361
776	36.631	48.687	9.038
777	108.903	38.804	9.407
778	74.801	30.516	10.085
779	70.203	12.579	4.425
780	7.888	12.566	9.525
782	93.563	80.291	9.275
784	66.290	68.772	8.875
785	11.286	18.202	10.037
787	40.551	34.595	10.915
788	88.516	32.968	9.176
789	22.188	50.959	11.509
790	90.269	46.963	9.464
791	4.434	48.294	9.095
792	100.749	30.150	8.970
793	106.261	25.259	10.603
794	13.738	25.569	10.842
795	37.401	23.522	8.600
796	28.647	21.553	9.509
797	2.772	19.062	10.306
798	104.836	65.520	9.490
799	52.584	10.377	10.136
800	96.025	87.351	10.357
801	74.777	75.811	8.361
802	19.450	64.769	7.838
803	73.605	60.031	10.567
804	63.478	56.312	6.910
805	48.165	47.742	8.531
806	90.091	42.456	2.895
807	75.334	43.648	7.394
808	28.074	37.445	8.379
809	71.852	11.005	12.117
810	21.122	58.395	8.218
811	38.413	56.546	8.109
812	94.266	40.429	8.118
814	75.689	24.267	9.215
815	102.694	17.275	7.636
816	76.607	5.512	9.331
817	70.274	80.375	8.646
819	104.393	75.718	4.928
820	13.854	70.287	7.397
821	79.606	68.108	8.006
822	67.572	31.590	9.312
823	61.942	66.360	5.965
824	13.858	51.244	5.959
825	53.518	49.752	6.999
826	49.218	39.812	2.414
827	1.661	41.513	6.687
828	70.815	39.289	5.385
829	46.911	33.390	7.952
830	35.009	32.175	7.339
831	18.722	30.420	7.487
832	38.200	27.428	6.081
833	36.195	64.996	7.023
834	9.103	51.889	11.411
835	80.778	35.051	7.533
836	16.150	37.796	10.033
837	9.072	37.833	8.490
838	53.742	36.867	8.119
839	105.634	31.699	4.336
840	94.072	29.209	9.704
841	51.508	27.560	7.598
842	6.800	24.549	9.967
843	15.884	20.528	10.012
844	44.258	16.315	9.087
845	70.173	16.491	9.081
846	73.367	34.128	4.333
847	97.233	5.996	7.579
848	59.957	85.352	10.330
849	35.528	74.123	8.417
850	73.445	70.530	8.602
851	4.434	60.120	7.771
852	105.185	61.521	3.520
853	9.579	58.468	9.486
854	48.919	54.673	7.026
855	16.488	46.433	7.285
858	69.024	53.677	11.799
859	41.106	63.078	10.047
860	46.882	75.229	8.693
861	33.318	58.116	10.156
862	58.465	55.618	11.318
863	100.031	54.764	14.013
864	13.702	50.442	14.007
865	49.453	41.468	9.106
866	21.776	28.407	11.276
867	71.475	6.579	9.835
868	57.519	3.819	11.782
870	92.224	60.231	13.005
871	33.788	79.085	10.204
872	27.517	53.422	10.431
873	107.322	50.273	11.999
874	85.717	45.975	13.352
875	75.607	46.231	12.075
876	5.872	42.299	10.542
877	35.263	41.521	12.478
878	28.408	30.672	8.557
879	52.075	33.425	12.044
880	48.049	26.257	11.426
881	75.941	64.843	10.534
882	55.995	27.069	12.075
883	65.679	63.003	10.260
884	31.149	63.952	10.966
885	95.414	53.937	11.449
886	51.482	56.447	13.152
887	101.510	46.732	12.906
888	106.720	30.905	12.957
889	42.548	24.746	12.816
890	95.659	23.750	12.524
891	67.032	23.775	14.416
892	71.437	22.227	12.380
893	57.720	20.675	13.996
894	57.420	63.437	11.333
895	79.905	15.219	12.855
896	97.933	8.556	17.031
897	72.960	2.731	15.497
898	89.952	83.892	12.218
899	71.874	86.989	8.493
900	76.568	81.690	13.052
901	65.025	80.923	12.198
902	54.801	74.619	13.545
903	96.541	66.069	12.068
904	90.185	65.436	12.404
905	47.005	9.426	12.013
906	32.184	25.368	8.259
907	109.399	15.013	10.337
908	14.484	2.986	11.572
909	62.897	29.992	11.652
910	49.046	20.818	10.026
911	93.040	15.152	8.558
912	14.776	10.118	11.014
913	40.038	4.856	10.470
914	108.238	3.906	13.183
915	83.513	2.424	8.884
916	10.751	64.717	10.322
917	84.806	59.164	12.231
918	67.206	41.467	9.386
919	31.174	44.348	8.530
920	25.395	43.384	10.676
921	63.957	45.766	10.534
922	60.210	37.462	9.478
923	81.567	20.792	10.373
924	88.533	6.023	9.608
925	19.735	8.250	8.516
926	23.936	2.510	10.289
927	50.138	80.304	6.484
928	15.793	81.367	8.734
929	11.848	44.843	12.009
930	63.278	12.357	13.369
931	102.972	39.880	12.455
932	85.877	50.049	9.161
933	39.653	81.729	6.365
934	4.110	71.248	9.461
935	14.762	56.069	12.664
936	82.514	48.968	5.213
937	74.259	38.393	11.431
938	31.555	24.899	15.469
939	35.706	13.056	11.267
940	50.935	5.094	8.028
941	65.611	5.254	11.417
942	57.113	43.761	10.345
943	29.967	2.814	9.256
944	57.172	79.599	12.028
945	107.510	80.082	10.476
946	102.156	78.972	11.996
947	17.446	74.239	10.160
948	68.993	74.617	10.687
949	41.486	71.493	9.907
950	20.062	72.440	5.126
951	11.863	74.571	11.080
952	43.038	57.741	11.004
953	23.548	80.354	10.206
954	35.102	18.093	6.744
955	16.740	14.940	7.491
956	76.974	12.128	7.844
957	77.670	58.110	4.527
958	43.535	55.671	3.611
959	50.969	44.806	3.620
960	105.131	39.923	5.415
962	15.069	25.308	3.988
963	54.799	20.855	4.090
964	19.387	18.272	3.275
965	97.835	13.922	5.016
966	17.461	56.595	4.036
973	25.022	70.242	4.829
979	6.230	62.543	3.074
981	46.792	20.555	5.071
982	1.598	15.306	4.908
983	81.908	8.916	5.952
985	99.352	84.500	6.005
986	54.399	78.355	4.323
987	6.971	74.372	4.643
990	31.493	58.582	4.474
991	71.303	57.963	3.088
992	11.435	43.727	6.009
993	24.928	18.071	4.452
994	44.683	12.624	2.929
995	74.473	7.068	3.858
996	15.559	84.689	3.085
998	10.570	70.915	2.436
999	20.863	61.460	3.416
1000	100.272	62.062	6.969
1001	5.869	53.596	6.413
1007	67.567	72.532	3.093
1010	105.460	51.405	4.017
1012	96.470	43.506	3.374
1013	62.751	43.173	3.708
1014	66.175	78.598	2.979
1017	2.910	35.100	4.019
1022	65.311	6.439	3.331
1023	62.863	5.345	23.394
1025	6.118	40.184	3.547
1026	28.809	40.102	3.488
1027	24.556	76.258	2.434
1029	26.389	32.639	2.445
1031	64.561	31.775	4.442
1032	27.694	24.846	4.200
1033	1.447	21.794	3.315
1034	58.406	13.441	4.608
1035	36.241	1.260	4.016
1042	76.768	39.956	4.095
1043	91.823	34.349	2.996
1044	85.923	35.514	4.812
1045	21.889	27.334	3.145
1046	49.775	24.666	1.894
1050	4.670	65.724	11.471
1051	83.483	23.316	3.049
1054	31.664	53.068	4.377
1055	70.852	54.069	6.594
1056	60.485	49.148	5.658
1057	81.486	42.393	5.674
1058	40.784	45.329	3.864
1059	39.846	40.380	5.933
1060	34.606	37.909	6.860
1061	100.590	37.156	8.464
1062	24.461	55.166	4.910
1063	22.528	37.148	5.858
1065	20.823	23.529	8.144
1066	100.081	24.544	10.064
1067	60.901	22.141	6.417
1068	45.189	4.242	5.889
1070	20.982	84.056	7.396
1071	19.901	77.683	5.561
1073	56.976	32.881	7.533
1074	57.244	69.531	4.651
1075	43.524	66.609	7.484
1076	99.434	68.579	8.402
1077	47.344	9.898	6.601
1078	61.521	7.971	8.966
1079	28.195	76.358	6.858
1080	81.836	73.891	7.517
1081	89.956	67.836	5.135
1082	50.755	71.100	6.960
1083	85.404	62.491	7.409
1084	25.890	63.382	5.334
1085	56.802	55.403	5.554
1086	93.788	63.985	6.196
1088	26.212	48.548	6.395
1089	43.851	27.406	8.001
1090	69.008	20.857	6.475
1091	7.833	20.343	4.655
1092	66.052	12.829	8.054
1093	51.193	15.755	6.643
1094	13.539	6.665	7.359
1095	18.879	2.663	4.010
1097	98.247	51.081	5.637
1098	102.960	25.792	3.384
1100	89.011	56.273	5.350
1101	70.979	46.904	4.562
1102	86.357	40.327	5.892
1103	7.337	30.140	5.573
1104	28.111	9.417	7.017
1105	9.519	2.062	4.364
1106	91.600	3.088	3.440
1107	34.374	80.559	3.175
1108	61.287	75.493	5.514
1109	13.541	78.115	3.795
1110	11.113	60.315	4.306
1111	97.775	73.554	5.905
1112	76.174	66.534	3.046
1114	38.102	61.564	3.269
1115	64.572	60.792	4.026
1116	59.077	60.152	7.341
1117	100.598	56.592	8.945
1118	88.146	51.161	4.114
1119	101.898	45.129	4.130
1120	35.481	44.361	4.581
1122	54.777	65.253	5.284
1123	2.473	66.752	4.918
1124	106.124	70.850	5.936
1125	20.823	44.187	5.490
1128	68.621	26.463	4.883
1129	90.921	23.498	7.087
1130	108.807	19.520	6.318
1131	96.361	20.278	6.037
1133	22.698	12.713	5.074
1134	49.337	66.369	6.401
1135	38.623	12.812	6.418
1136	4.086	7.884	6.099
1137	56.161	6.582	4.564
1139	104.779	4.822	6.422
1140	25.979	3.347	4.005
1144	75.938	80.264	4.003
1145	106.598	10.623	8.287
1146	55.086	69.000	12.644
1148	61.348	71.795	11.096
1149	85.950	7.832	21.082
1150	34.974	76.007	20.921
1151	55.449	69.586	19.834
1152	23.585	64.428	20.853
1153	87.481	60.554	18.703
1154	65.945	57.157	22.250
1155	63.966	50.445	20.078
1156	96.605	43.083	18.477
1157	71.778	41.363	17.018
1158	83.321	30.227	22.280
1159	15.066	19.443	20.845
1160	6.773	21.310	21.239
1161	58.626	21.411	20.184
1162	76.506	21.514	19.763
1163	34.453	17.901	20.541
1164	27.485	18.842	20.797
1165	71.832	7.982	21.575
1166	26.009	3.095	19.510
1167	82.112	82.318	20.550
1168	36.327	8.459	20.593
1169	95.059	12.476	22.019
1170	70.105	31.658	21.102
1171	43.495	39.529	23.480
1172	28.433	79.502	19.471
1173	106.763	71.669	20.297
1174	17.342	68.766	20.132
1175	86.571	68.249	18.677
1176	72.056	59.678	19.437
1177	7.239	49.231	25.946
1178	46.536	47.468	20.124
1179	24.948	34.849	20.043
1181	92.996	75.731	18.164
1182	40.131	13.182	23.679
1184	10.817	77.450	21.630
1185	101.913	69.436	22.802
1186	32.206	57.065	23.621
1187	19.328	48.947	20.496
1188	101.985	46.779	22.573
1189	92.543	47.230	19.642
1190	22.297	40.630	20.780
1191	79.006	40.374	22.076
1192	17.195	3.520	22.516
1193	76.081	72.968	21.515
1194	28.399	72.671	18.508
1195	66.673	61.681	18.618
1197	110.367	27.671	18.723
1198	64.162	21.511	19.994
1199	78.893	10.119	20.486
1201	30.807	67.210	18.127
1202	95.436	67.530	17.530
1203	3.766	66.095	18.927
1204	107.966	61.380	20.298
1205	80.170	34.147	19.080
1206	23.153	55.041	21.112
1207	87.059	42.904	23.666
1208	96.256	33.147	20.401
1209	88.407	33.593	19.939
1210	6.348	30.856	19.203
1211	29.393	29.526	20.425
1212	43.050	29.491	20.477
1213	92.944	27.479	18.569
1214	24.487	24.572	19.093
1215	21.655	18.342	18.216
1216	105.115	44.666	18.870
1217	77.201	83.771	25.140
1218	19.093	32.619	20.352
1219	37.339	36.659	20.415
1220	7.489	53.434	21.620
1221	36.317	51.607	20.873
1222	83.808	37.977	17.993
1223	9.921	36.788	21.151
1224	12.519	29.427	16.839
1225	101.621	27.867	20.444
1226	75.872	28.442	20.636
1227	70.837	23.965	19.209
1228	93.380	20.739	20.078
1229	53.512	37.405	19.923
1230	50.879	18.935	19.576
1231	47.677	12.434	20.847
1232	27.905	9.803	18.076
1233	20.906	3.850	16.376
1234	103.785	82.719	18.798
1235	14.753	82.445	21.707
1236	5.921	72.343	19.577
1237	38.015	60.465	20.492
1239	3.182	39.619	25.392
1240	101.505	14.391	23.450
1241	55.600	82.527	22.658
1242	34.280	83.431	23.677
1243	16.215	10.780	22.476
1244	31.747	43.587	21.224
1245	50.463	38.463	24.598
1246	13.475	30.593	22.961
1247	3.478	31.175	23.874
1248	98.487	23.969	24.489
1249	34.474	24.591	24.933
1250	24.562	13.792	21.999
1252	46.717	85.004	22.323
1253	41.426	52.591	18.530
1254	69.593	69.985	25.901
1255	86.988	58.827	23.904
1256	80.649	56.637	24.834
1257	92.177	57.637	21.418
1258	45.014	55.386	21.992
1259	12.808	50.813	22.986
1260	26.291	45.031	22.236
1261	3.839	42.509	19.671
1262	15.981	37.476	21.129
1264	89.844	65.569	23.597
1265	22.790	27.830	24.137
1266	6.805	61.264	22.322
1267	98.800	74.554	26.540
1268	34.876	68.534	12.151
1269	87.076	71.158	23.015
1270	58.768	65.445	23.456
1271	67.046	66.357	22.980
1272	95.326	51.606	24.399
1274	42.520	49.701	24.627
1275	87.703	12.024	27.697
1276	42.386	7.808	23.962
1277	81.254	77.576	20.018
1278	4.695	7.462	25.847
1279	102.345	63.111	25.533
1280	59.000	38.905	22.062
1281	102.556	32.031	24.983
1282	44.623	34.230	24.691
1283	9.415	16.344	20.601
1284	64.175	14.327	22.554
1285	4.044	85.978	23.886
1286	9.206	82.618	24.591
1287	5.251	76.365	24.444
1288	26.160	76.672	24.557
1289	1.665	21.040	16.700
1290	16.550	25.907	22.618
1291	45.961	20.303	20.933
1292	106.284	79.505	22.276
1294	48.765	78.576	23.274
1295	62.065	78.130	21.668
1296	42.930	73.290	24.162
1298	101.069	64.551	18.913
1299	81.064	63.785	23.628
1300	58.429	60.544	20.704
1302	50.949	61.364	21.521
1303	66.603	41.237	20.591
1304	106.702	40.550	21.997
1305	100.606	38.883	23.980
1306	64.150	32.483	21.435
1307	35.370	30.671	22.478
1308	58.845	30.828	23.233
1309	9.526	25.992	21.120
1310	82.804	23.888	22.812
1311	31.349	12.480	21.023
1312	13.621	43.844	22.630
1313	88.717	21.530	17.999
1314	93.833	5.024	22.555
1315	52.258	45.174	21.831
1316	81.908	17.538	19.933
1317	19.784	16.747	22.512
1318	108.515	16.531	19.094
1319	56.365	15.971	21.154
1321	59.508	10.512	18.155
1322	46.419	7.307	17.842
1323	22.344	6.511	23.160
1324	56.723	3.500	24.532
1325	73.222	43.035	22.619
1326	8.813	3.496	19.579
1327	19.284	75.956	23.581
1328	71.579	77.375	25.213
1329	11.113	71.955	24.311
1330	61.056	71.815	20.561
1331	12.014	66.487	21.899
1332	97.355	58.526	23.112
1333	80.710	54.047	17.638
1334	88.624	50.573	21.951
1335	83.778	48.606	23.090
1337	69.876	17.898	20.336
1338	37.999	75.614	27.140
1339	66.020	10.426	18.445
1340	16.631	68.856	13.110
1341	18.576	59.685	12.889
1342	37.342	55.692	14.287
1343	1.494	56.058	14.898
1344	17.446	53.771	17.312
1345	4.323	52.022	15.510
1346	33.828	49.095	16.483
1347	90.916	41.300	14.495
1348	11.244	39.346	14.559
1349	77.352	41.169	15.775
1350	54.768	38.915	14.625
1351	36.418	28.548	15.356
1352	78.648	27.872	13.651