ITEM: TIMESTEP
37.00250122045744
ITEM: NUMBER OF ATOMS
1490
ITEM: BOX BOUNDS
1.0317460317460316 110.39682539682539
1.0317460317460316 87.28571428571428
2.5 48.0
ITEM: ATOMS id x y z
1	91.228	37.805	33.211
2	69.528	36.993	30.678
3	92.760	30.660	29.942
4	74.920	27.996	33.041
5	54.082	20.304	32.960
6	39.542	16.131	29.948
7	57.805	14.469	33.934
9	19.737	82.668	36.131
10	68.312	81.493	31.780
11	88.760	77.810	30.577
12	98.769	76.517	35.500
13	57.761	60.586	31.655
14	27.594	56.206	30.964
16	4.480	38.236	30.863
17	70.191	39.127	25.921
18	106.458	36.372	34.858
20	77.512	36.421	36.476
21	49.366	41.700	30.493
22	3.504	45.160	27.347
23	88.613	54.805	34.396
24	25.333	71.624	31.122
25	51.158	60.253	31.892
26	84.067	57.857	38.846
27	15.077	47.463	32.300
28	61.158	45.641	32.176
29	109.313	41.466	36.893
30	72.760	31.913	28.938
31	10.437	27.070	36.388
32	21.157	12.428	33.591
33	46.693	17.525	36.292
34	11.762	2.127	33.982
37	103.134	81.307	33.367
38	33.826	80.922	33.347
39	39.628	81.699	34.785
41	36.601	61.263	32.881
42	41.610	54.520	34.933
43	66.721	58.279	32.448
44	27.540	6.275	32.841
45	96.566	14.709	33.862
46	82.516	4.276	28.653
47	62.117	78.578	29.230
48	74.321	82.152	31.013
50	31.529	73.662	29.949
52	34.977	73.701	34.656
53	65.777	68.843	28.536
54	95.524	68.004	29.072
55	1.164	63.670	28.393
56	29.504	61.378	25.916
57	1.521	12.196	29.887
58	20.482	59.600	30.702
59	55.760	45.099	28.427
60	45.514	36.376	29.584
61	48.155	31.714	31.298
63	89.685	20.318	31.137
64	40.134	23.490	31.444
65	14.393	16.391	31.966
66	66.425	18.374	26.750
67	6.810	83.995	28.442
68	73.675	52.055	30.608
69	55.526	78.535	31.631
70	85.660	37.591	31.550
71	67.449	44.687	28.940
72	11.416	75.223	31.972
73	109.103	72.762	32.525
74	43.888	61.610	30.150
75	100.649	30.681	30.211
76	79.602	22.402	33.038
77	52.288	13.697	32.178
78	12.531	12.331	29.489
79	33.880	9.202	30.958
80	50.998	8.363	29.054
81	42.290	40.103	31.985
82	81.148	10.411	29.377
83	100.773	6.861	32.780
84	95.149	4.110	28.403
85	61.534	4.488	27.819
87	86.344	77.036	24.093
88	103.883	71.971	27.488
89	102.096	66.475	30.086
90	70.936	65.596	31.433
91	16.466	51.965	28.114
92	73.373	12.057	32.503
93	75.831	6.783	29.379
94	26.385	11.100	35.883
95	81.088	16.478	33.622
96	48.648	25.391	40.052
97	90.374	24.493	35.188
98	71.783	22.004	34.540
99	69.098	24.035	39.242
100	96.013	21.968	34.623
101	75.421	18.514	38.892
102	36.082	15.473	35.903
103	14.977	11.861	34.796
104	96.808	7.929	38.954
105	107.777	28.884	32.009
106	16.841	6.743	36.022
108	10.497	83.577	32.589
109	78.421	74.200	35.126
110	62.765	70.594	32.909
111	18.028	74.435	30.578
112	35.404	65.972	34.929
113	16.553	56.456	38.012
114	94.009	55.500	31.038
115	88.142	48.133	34.328
116	66.986	8.241	37.293
117	27.663	45.115	35.055
118	80.447	32.681	33.426
119	95.798	34.781	36.143
120	92.500	45.634	31.016
121	10.823	34.630	35.548
122	57.301	28.718	35.152
123	87.794	30.996	36.634
124	28.353	26.508	37.637
125	33.297	25.207	39.874
126	16.452	13.387	39.396
127	44.872	6.787	34.891
129	49.335	34.289	37.082
131	84.445	78.315	38.433
132	66.134	74.696	35.234
133	40.534	71.619	37.126
134	94.076	75.327	32.099
135	5.591	71.619	35.283
136	30.799	61.715	34.414
137	10.538	62.887	33.093
138	50.128	54.659	35.488
139	49.396	46.523	32.398
140	63.655	86.788	36.221
141	37.228	85.329	29.665
142	59.451	34.242	31.885
143	86.604	20.631	36.847
144	47.048	11.839	36.281
145	6.172	6.303	36.944
147	94.610	81.694	33.835
148	88.351	72.955	35.618
149	50.473	73.571	31.003
150	79.660	64.225	33.464
151	43.233	66.234	34.351
152	17.250	65.974	32.002
153	25.974	27.673	32.187
154	54.093	67.641	32.079
155	41.108	50.375	31.337
156	38.330	45.912	31.299
157	32.567	21.652	33.000
158	62.501	28.606	31.694
159	44.791	27.155	35.171
161	13.435	24.509	31.874
162	101.687	18.656	33.091
163	23.975	21.851	34.373
164	88.865	49.165	27.941
166	32.013	32.305	32.439
167	99.962	42.563	32.244
168	100.982	11.983	37.387
169	90.477	11.735	32.560
170	85.099	7.356	33.170
172	103.958	61.440	33.553
173	34.789	50.308	36.415
175	71.708	48.088	36.018
176	21.717	46.275	34.410
177	26.266	38.988	33.094
178	20.353	28.206	35.937
179	85.197	83.963	34.823
180	74.530	66.250	36.414
183	85.811	60.725	34.100
184	4.049	56.303	34.145
185	103.687	55.316	34.579
186	10.348	49.247	35.010
187	73.581	44.688	31.530
188	27.446	17.364	34.580
189	81.035	42.926	33.641
191	42.691	73.602	29.514
193	57.794	83.697	27.202
194	99.349	79.004	27.922
196	57.845	46.304	21.971
197	98.064	45.916	26.165
198	62.292	44.413	25.866
199	43.555	44.598	22.282
200	63.926	35.815	25.288
201	13.045	20.658	27.976
202	56.997	14.907	28.273
203	30.705	16.022	28.025
204	101.956	9.123	26.781
205	11.048	5.649	28.478
206	87.466	83.247	25.997
207	106.064	64.183	26.217
208	13.334	59.611	22.232
209	52.306	55.659	26.163
210	34.370	48.356	22.692
211	30.304	4.290	25.010
212	70.168	6.723	29.775
213	33.869	10.308	24.916
214	94.931	11.110	28.364
215	52.389	35.101	29.333
216	92.776	18.158	25.142
218	51.928	79.572	26.536
219	16.144	81.353	27.876
221	76.758	76.335	29.486
222	15.727	74.523	23.436
223	68.891	76.262	26.921
224	91.426	44.827	24.597
225	77.174	69.510	26.399
226	73.798	63.856	26.248
227	100.526	60.355	21.485
228	12.588	56.861	28.979
229	21.366	48.816	27.867
230	104.653	45.632	29.098
231	19.698	41.767	28.305
232	106.058	33.768	29.015
233	7.795	21.753	27.287
234	74.519	12.398	26.500
235	30.540	71.811	24.692
236	8.193	40.975	27.337
237	81.461	35.805	27.790
238	22.127	35.946	28.159
239	3.654	11.370	21.358
240	109.240	8.199	27.502
241	74.054	84.017	25.036
242	101.840	78.445	22.333
243	88.477	81.330	16.504
244	45.736	81.795	30.847
245	26.955	66.454	23.602
246	46.099	60.464	22.526
247	68.756	51.689	24.968
248	85.992	13.199	23.767
250	69.464	35.145	22.618
251	29.993	26.126	22.943
252	51.395	27.198	32.671
253	72.738	20.914	27.019
254	82.770	18.881	28.609
255	87.219	20.384	22.353
256	99.178	15.360	26.951
257	46.347	15.612	27.743
258	67.602	11.086	22.952
259	37.316	43.056	20.264
260	76.081	32.166	24.530
262	41.004	26.365	25.524
263	80.943	28.035	29.039
264	92.524	24.262	27.896
265	65.250	23.964	25.889
266	44.794	20.707	25.956
267	25.998	20.058	27.939
268	20.444	85.039	25.233
269	106.963	83.199	24.529
270	65.680	83.889	23.497
271	47.568	73.787	23.683
272	51.462	19.568	26.518
273	18.260	70.601	25.828
275	47.297	66.228	20.028
276	66.476	60.675	27.094
277	27.081	50.460	26.464
278	75.433	50.856	23.207
279	87.325	35.592	23.977
280	39.018	38.402	23.538
281	50.383	32.605	24.709
282	59.083	24.435	26.418
283	7.097	68.128	27.981
284	76.054	41.370	27.015
285	77.927	48.275	27.971
286	53.890	50.185	23.058
287	92.637	33.948	25.485
288	16.323	28.715	28.028
289	103.400	25.263	33.407
290	21.845	24.583	28.867
291	44.870	10.763	29.930
292	31.484	78.960	26.678
293	54.574	68.773	24.120
294	35.358	60.275	25.574
295	83.163	52.138	28.393
296	98.821	35.964	28.492
297	80.722	43.683	25.719
298	41.574	29.910	30.338
299	86.656	31.111	30.204
300	85.469	24.450	30.394
301	47.097	21.468	30.893
302	96.507	20.065	29.476
303	104.696	19.549	24.524
304	60.000	19.065	25.632
305	76.131	17.486	29.087
306	23.530	13.469	27.357
307	62.763	29.370	24.242
308	7.725	16.226	28.629
309	15.909	35.494	29.121
310	32.430	40.665	27.909
312	89.228	71.443	28.676
313	11.908	69.254	33.425
314	39.484	63.458	24.833
315	1.190	56.243	25.475
316	64.403	51.371	31.716
317	14.807	40.446	33.340
318	59.023	40.583	30.696
319	60.562	20.356	33.901
320	94.976	40.558	29.604
321	72.089	26.805	27.658
322	6.379	2.091	28.316
325	56.975	76.370	24.038
326	60.123	64.713	28.858
327	7.168	59.526	30.991
328	33.645	55.363	29.880
329	58.530	51.116	29.345
330	43.376	43.982	27.481
331	65.554	24.155	33.019
332	82.457	79.838	31.426
333	66.864	12.338	28.520
335	78.312	54.666	30.034
336	8.054	53.495	29.099
337	10.500	43.280	32.748
338	29.544	34.490	26.142
339	4.965	26.081	31.741
340	33.763	22.789	25.819
341	107.021	24.725	28.309
342	41.652	6.226	30.563
344	107.725	56.431	26.912
346	26.622	83.274	25.599
348	38.878	68.758	26.386
349	95.963	62.654	30.064
350	19.741	61.805	25.081
352	60.923	56.643	29.476
353	40.336	56.454	28.393
354	99.061	52.089	29.668
356	16.776	6.522	26.121
357	73.569	56.627	26.571
358	13.828	64.258	27.017
359	23.274	77.628	30.636
360	34.987	70.265	20.428
361	22.155	64.984	28.894
362	80.756	60.038	28.466
363	45.797	55.703	27.124
364	48.884	46.057	25.215
365	24.735	43.357	28.860
367	35.619	33.880	26.107
368	100.068	58.483	28.802
369	101.041	36.756	34.981
370	89.166	29.723	21.459
371	32.735	27.580	30.555
372	19.104	17.608	26.198
373	62.395	10.077	25.942
374	23.995	6.212	27.470
375	85.992	4.716	24.472
378	48.610	66.191	27.595
379	8.896	32.756	27.998
380	99.511	48.846	33.483
381	27.767	50.175	35.562
384	82.452	79.903	46.433
385	65.556	75.018	45.535
386	10.645	71.191	46.304
387	87.053	66.786	44.987
388	87.327	60.591	44.043
389	51.436	56.749	44.696
391	89.150	52.128	44.484
394	93.751	45.769	42.436
395	55.371	45.178	47.472
396	42.874	42.709	43.511
397	54.418	39.398	42.984
398	44.501	24.663	45.681
399	66.699	20.393	42.657
400	61.223	17.502	44.414
401	78.229	12.040	46.171
402	53.266	8.457	44.855
403	27.766	28.487	44.160
405	27.029	46.590	46.172
406	61.285	80.688	36.599
410	78.738	44.322	44.033
411	94.008	32.176	41.558
412	13.436	19.043	43.119
413	88.948	18.476	42.558
414	71.522	17.031	44.588
415	101.394	11.635	46.553
416	29.535	13.891	46.112
417	108.540	74.710	43.009
418	40.669	67.361	43.547
419	54.676	64.955	41.875
422	44.956	50.472	41.157
423	21.952	55.730	41.990
424	16.777	52.427	45.603
425	22.221	47.867	47.292
426	81.058	10.332	41.171
427	65.144	10.228	44.671
428	73.573	7.997	38.027
429	46.550	79.080	47.012
430	17.139	72.164	41.646
431	99.582	71.716	45.208
432	58.647	60.226	39.869
433	13.159	58.275	44.908
434	94.726	36.951	47.195
435	50.159	37.645	46.878
436	13.247	38.951	44.806
437	25.258	32.937	41.496
438	64.681	28.046	46.813
439	56.023	81.591	42.005
440	87.735	32.100	45.052
441	11.255	26.812	43.951
442	100.051	7.000	43.909
443	87.413	5.362	44.287
444	48.375	1.580	38.582
445	39.097	2.672	41.533
446	69.448	85.115	38.902
447	8.336	75.103	38.689
448	69.160	75.459	39.677
449	76.566	57.898	41.179
450	57.892	26.974	44.885
452	25.663	1.900	40.346
453	75.625	23.715	37.684
454	18.925	78.707	43.489
455	39.361	72.550	42.865
456	50.697	74.480	42.487
457	67.251	67.892	44.552
458	22.608	67.390	42.328
459	107.687	69.247	45.250
460	46.176	62.482	44.055
461	97.570	66.082	43.576
462	34.476	58.850	44.539
463	9.542	13.404	42.577
464	97.070	54.473	41.637
465	104.429	44.719	41.761
466	10.199	46.071	40.526
467	44.902	35.400	44.775
468	101.273	30.073	41.976
469	49.190	30.281	46.596
471	72.888	30.228	43.026
473	21.275	20.621	43.877
474	9.297	51.185	43.870
475	24.044	77.341	45.411
476	66.352	84.204	46.673
477	103.941	83.713	46.536
479	61.694	37.088	44.077
488	89.769	26.727	40.937
494	4.832	72.508	45.491
495	28.643	63.450	45.710
497	79.965	52.671	42.845
498	101.535	21.779	46.497
499	99.463	50.098	45.041
500	65.729	56.116	41.594
501	44.598	57.586	44.542
504	91.551	55.986	40.949
514	41.918	5.677	45.141
517	88.836	80.860	46.224
518	58.239	76.539	43.058
521	29.617	68.619	44.904
522	41.565	18.954	44.814
523	29.063	57.823	42.008
525	1.248	40.005	41.944
526	82.540	18.001	46.188
528	94.485	8.898	44.947
530	61.130	4.948	47.049
531	29.461	84.035	44.101
532	99.261	83.402	39.608
533	34.564	66.919	44.592
534	103.742	63.744	42.090
535	36.734	21.167	44.155
536	19.971	61.287	43.389
537	108.686	38.516	44.199
539	28.352	40.612	43.366
540	85.143	26.689	46.583
544	69.660	6.458	45.079
546	56.691	52.934	46.126
550	107.994	32.099	45.114
551	53.215	31.341	40.799
552	5.195	22.246	44.366
553	19.843	14.620	44.078
555	107.447	3.317	43.603
556	48.743	85.178	41.600
557	74.925	76.511	45.954
558	29.824	78.226	42.478
559	76.129	24.117	47.047
561	63.347	62.121	43.221
562	15.501	65.357	43.348
563	74.179	51.798	44.415
565	24.289	44.329	40.715
566	7.782	39.155	42.069
569	38.655	33.160	45.598
570	32.914	71.513	40.634
571	96.912	53.948	36.493
573	65.102	41.969	42.737
574	4.369	27.071	40.396
575	6.787	15.279	34.595
576	61.493	8.955	33.568
577	83.524	15.148	38.957
578	52.088	5.922	34.372
580	26.619	73.120	40.969
582	80.825	53.697	34.699
583	45.420	31.200	40.008
584	32.699	55.516	35.681
585	4.980	50.157	34.163
586	95.002	42.965	37.123
587	28.431	36.893	38.490
588	82.613	33.444	38.794
589	82.668	26.263	36.769
590	1.334	19.854	29.581
591	54.580	18.194	39.099
592	73.829	12.130	42.467
593	59.499	12.534	39.390
594	25.920	50.335	41.511
595	25.245	9.580	42.414
596	36.848	36.411	41.570
597	66.179	45.959	34.706
598	6.612	18.941	38.382
599	82.527	4.626	38.707
600	92.621	81.342	40.996
601	103.403	85.607	36.148
603	91.027	67.907	40.064
604	21.654	63.898	37.416
605	53.487	60.250	37.499
606	89.167	36.993	39.172
607	6.781	42.079	37.326
608	63.003	24.751	40.957
609	30.961	16.701	40.287
610	32.078	8.468	39.795
611	11.636	8.452	39.994
612	61.668	6.807	40.019
613	18.346	85.149	40.594
614	29.026	84.308	37.300
615	61.918	63.380	35.592
616	35.152	61.514	39.014
617	53.350	51.452	40.720
618	46.913	20.887	41.471
619	11.677	18.799	36.446
620	22.091	8.070	38.345
621	57.823	83.869	34.487
622	78.995	81.058	38.541
623	17.675	70.529	35.111
624	67.363	68.444	35.703
626	24.989	59.551	35.566
627	94.080	60.171	35.930
628	7.562	58.913	41.664
629	87.740	42.511	36.012
630	35.289	42.748	35.221
631	47.648	81.187	36.652
632	47.516	39.811	38.033
633	29.057	69.727	36.360
634	98.039	71.340	40.068
635	27.360	66.715	29.083
636	93.013	69.631	35.062
637	5.478	65.879	32.874
638	98.056	64.641	36.179
639	76.450	57.559	34.078
641	57.864	50.990	35.073
642	27.891	77.452	35.426
644	36.615	9.068	36.366
645	107.931	9.691	37.006
647	25.079	80.260	39.807
650	43.946	76.305	37.478
652	46.676	58.990	37.366
653	68.602	59.619	38.089
654	22.160	53.535	35.938
655	88.234	9.008	39.000
656	56.714	45.168	40.619
657	76.551	36.244	31.008
658	36.942	35.092	34.028
659	64.030	31.479	40.048
660	68.286	29.699	33.943
661	101.824	30.782	36.510
662	81.085	21.202	39.824
663	64.841	18.289	36.196
664	41.898	13.426	34.823
665	69.951	13.819	36.194
666	64.962	38.699	33.415
667	51.532	8.324	22.516
668	103.908	24.606	39.140
669	12.812	40.834	38.436
670	7.051	78.961	31.537
671	104.166	75.931	39.156
672	60.691	72.059	38.144
673	24.481	70.705	46.623
674	71.615	68.663	41.921
675	87.167	67.780	34.584
676	3.023	69.332	40.446
677	8.134	66.603	41.116
678	27.784	64.633	40.353
679	105.423	79.021	44.369
680	4.415	62.442	39.488
681	34.559	40.882	40.492
682	33.654	28.934	45.026
683	79.312	25.554	42.619
684	51.566	12.518	39.249
685	43.391	83.443	40.069
686	93.377	75.881	38.926
687	21.787	76.212	37.655
688	73.542	63.553	43.120
689	84.296	64.221	38.659
690	69.791	48.097	41.466
691	40.767	61.839	38.189
692	61.487	86.400	42.077
694	83.741	39.035	40.405
695	48.087	15.041	43.510
696	12.681	83.862	38.702
698	85.857	74.198	44.334
699	78.927	74.743	40.931
700	32.965	77.607	37.897
701	80.462	67.470	41.934
702	106.421	53.084	42.134
704	38.378	55.390	42.320
705	21.293	40.245	39.083
706	6.586	32.932	40.835
707	97.541	27.906	38.003
708	52.619	21.355	43.959
709	97.295	16.057	41.494
710	36.584	20.522	38.934
711	65.829	14.697	39.706
712	18.595	9.112	44.020
714	50.719	43.434	41.874
715	21.783	28.767	41.654
716	32.906	47.797	42.672
717	99.961	48.590	38.922
718	74.396	41.867	37.282
719	61.464	41.614	37.663
720	56.885	36.845	36.981
721	77.627	39.092	43.180
722	67.041	36.110	39.925
723	79.051	32.447	43.913
724	40.138	27.115	38.803
725	61.294	19.409	39.732
726	19.473	19.854	38.283
727	60.133	52.793	39.135
728	107.659	4.209	35.814
729	41.320	77.947	41.705
730	53.677	74.805	36.486
731	54.904	69.058	37.534
732	14.081	64.081	38.135
733	76.657	48.749	38.489
734	46.193	49.594	35.919
735	92.201	48.967	38.013
736	98.891	38.717	40.307
737	72.637	36.273	38.731
739	38.751	48.542	39.523
740	47.643	64.019	38.682
742	84.143	49.160	40.434
743	41.648	38.762	38.462
744	68.709	37.199	46.770
745	106.269	35.271	40.618
746	25.042	19.157	40.831
748	35.033	9.646	45.228
750	19.462	3.002	41.034
752	67.836	52.455	37.030
753	17.754	47.339	41.655
754	109.036	45.647	45.173
755	109.336	27.071	41.397
756	16.381	30.970	41.336
757	93.774	22.010	39.345
758	47.380	7.993	42.329
759	78.352	7.166	34.956
760	53.752	5.067	40.739
761	6.342	82.970	39.947
762	13.745	52.158	40.723
763	76.968	6.136	23.524
764	42.155	44.719	35.421
765	48.000	3.507	24.190
766	77.748	18.424	11.432
767	29.620	15.283	9.042
768	92.405	9.355	4.993
769	37.526	6.188	10.309
771	28.403	67.450	7.052
772	24.135	70.840	10.599
773	50.523	61.010	4.364
774	83.619	56.630	10.928
775	72.840	48.990	8.949
776	41.095	47.827	6.192
777	110.168	38.035	11.346
778	74.136	30.068	7.436
779	71.728	10.407	3.743
780	8.412	9.161	9.081
784	65.896	70.930	9.643
785	11.066	15.089	10.498
787	38.350	34.799	8.821
788	87.746	34.612	8.565
789	22.202	51.535	10.209
790	86.763	46.126	7.118
791	5.347	48.178	6.136
792	101.680	30.386	8.456
793	108.907	25.150	11.348
794	13.832	25.281	11.245
795	39.545	22.323	11.280
796	27.765	20.417	8.048
797	3.635	17.213	8.314
798	105.024	63.258	7.648
799	52.020	10.726	12.574
801	74.421	76.610	6.985
802	17.651	65.285	8.386
803	71.109	58.377	7.763
804	64.931	56.018	7.719
805	47.796	48.994	5.550
807	72.927	41.553	10.011
808	27.066	36.594	9.859
809	74.237	11.723	12.884
810	21.242	58.543	9.324
811	37.894	61.167	7.723
812	93.716	39.835	7.688
814	77.207	25.834	10.322
815	102.254	16.200	8.378
816	77.709	5.944	10.967
817	69.598	80.464	8.137
819	105.908	77.458	8.979
820	15.983	70.244	4.345
821	78.227	66.500	8.108
822	65.599	30.326	9.991
823	61.615	69.621	5.744
824	17.489	53.683	5.485
825	54.915	51.176	6.524
827	2.787	38.747	5.899
828	70.553	38.434	6.801
829	44.214	35.690	5.402
830	32.761	32.125	5.589
831	16.104	30.768	8.042
832	37.208	28.080	7.547
833	34.968	66.691	5.259
834	10.765	49.443	6.175
835	82.762	36.333	6.706
836	15.845	36.732	11.482
837	8.404	38.589	8.926
838	52.608	40.713	4.524
839	107.688	32.316	5.338
840	93.869	30.669	9.444
841	50.211	30.168	7.315
842	5.905	21.628	10.653
843	16.908	18.551	12.293
844	42.241	18.664	4.854
845	73.153	16.910	7.435
846	70.993	33.532	3.710
847	98.140	5.678	7.936
848	58.388	85.992	11.160
849	31.876	73.616	7.996
850	71.102	68.144	6.498
851	6.557	60.540	7.268
852	101.409	59.796	2.998
853	10.569	55.690	8.225
854	46.532	55.952	5.469
855	18.462	45.485	8.576
858	67.059	53.274	11.429
859	42.542	64.991	8.105
861	32.866	56.285	11.476
862	61.806	58.792	10.507
863	100.890	52.907	14.701
864	16.608	50.413	13.117
865	46.318	40.097	8.515
866	19.024	31.369	13.593
867	69.629	7.386	7.599
868	57.306	5.077	10.696
870	93.367	55.926	13.375
871	35.585	82.831	10.042
872	27.171	56.478	9.901
873	107.917	49.379	14.049
874	89.114	43.750	15.213
875	77.581	46.435	11.601
876	4.335	44.874	10.168
877	35.488	41.425	12.101
878	27.928	30.467	8.513
879	51.492	35.592	9.438
880	50.725	28.214	14.289
881	76.036	61.309	9.202
882	57.147	29.541	12.869
883	65.728	61.731	9.232
884	33.061	62.520	10.541
885	94.659	49.263	11.029
886	52.959	56.746	8.456
887	103.513	45.852	9.965
888	107.607	33.160	11.372
889	43.826	25.437	12.139
890	95.171	25.153	13.555
891	63.777	24.429	10.856
892	70.909	22.543	9.967
893	59.563	20.653	11.864
894	56.197	68.172	10.822
895	81.339	14.513	14.373
896	100.760	10.398	17.395
897	72.034	6.002	13.583
898	92.710	82.835	13.007
900	75.339	80.676	12.130
901	63.464	82.350	10.047
902	55.458	75.616	14.333
903	98.077	65.598	13.006
904	91.746	62.170	11.669
905	44.855	13.582	8.635
906	32.383	24.380	8.015
909	62.116	30.170	14.608
910	49.111	24.167	8.934
911	93.226	16.447	9.100
912	16.523	11.506	12.720
913	41.728	3.173	12.478
914	107.719	4.793	13.554
916	11.427	65.565	6.399
917	82.687	61.815	8.189
918	65.440	39.595	8.455
919	30.951	48.511	8.462
920	27.138	42.936	8.838
921	63.584	46.894	8.913
922	57.972	36.319	12.186
923	83.227	18.903	9.620
924	88.639	7.406	10.518
925	22.254	12.035	7.235
926	26.514	5.381	7.723
927	52.196	83.265	4.446
928	11.879	84.174	7.167
929	11.691	44.249	11.336
930	66.771	14.221	13.821
931	102.411	37.669	12.206
932	82.773	49.782	10.528
933	39.803	82.192	5.673
935	15.971	58.920	8.993
936	79.543	47.327	6.010
937	76.037	34.810	9.073
938	32.754	23.621	13.881
939	33.892	10.510	8.459
940	50.505	5.866	8.483
941	66.420	7.371	12.874
942	55.870	44.033	10.079
943	31.992	2.516	10.081
944	58.505	79.363	10.894
945	108.474	81.272	12.953
946	98.518	77.141	10.888
947	19.433	74.056	8.239
948	69.739	75.551	12.147
949	41.281	73.244	8.409
951	12.950	73.018	7.815
952	45.936	59.778	10.099
953	22.100	80.259	6.252
954	34.657	19.093	7.094
955	14.985	12.836	6.086
956	82.037	12.179	6.483
957	77.007	58.477	3.640
959	52.049	45.894	2.509
960	104.680	38.246	2.892
962	16.024	25.522	3.925
963	54.135	22.587	4.772
964	20.369	21.106	4.321
965	97.408	15.073	3.445
966	16.823	59.344	2.309
973	25.109	73.863	5.640
981	46.868	21.673	3.534
982	2.488	12.892	3.052
983	85.393	6.607	2.857
985	101.000	84.432	4.738
986	55.181	76.689	4.106
987	6.377	74.569	7.426
990	29.488	60.222	4.890
992	8.143	43.851	4.723
995	76.682	7.905	4.952
996	15.494	86.962	2.999
1000	99.830	60.405	9.655
1001	7.754	53.217	2.776
1007	68.376	74.428	4.411
1010	103.429	52.326	3.447
1012	97.102	44.311	2.987
1013	62.414	43.332	2.417
1017	4.609	31.728	3.500
1023	61.993	4.718	21.338
1026	27.435	43.807	2.997
1029	26.448	34.903	4.170
1032	26.912	25.193	4.421
1033	3.194	21.413	4.318
1035	32.271	1.542	3.594
1042	77.959	40.364	6.689
1045	21.232	28.291	4.402
1050	6.364	65.100	10.727
1051	83.130	24.325	3.970
1054	30.731	53.732	5.262
1055	69.144	52.795	5.083
1056	60.170	50.170	5.266
1057	81.910	43.427	10.014
1059	38.979	38.274	2.719
1060	32.603	38.290	7.613
1061	97.065	35.724	6.976
1062	24.340	55.293	4.665
1063	20.214	36.136	5.778
1065	21.114	23.800	9.718
1066	101.609	24.202	7.317
1067	60.792	25.932	6.159
1068	46.119	2.399	3.427
1070	18.181	85.872	8.844
1071	16.341	78.987	7.353
1073	58.514	34.546	5.989
1075	46.189	69.547	8.958
1076	99.513	70.350	10.405
1077	49.746	11.964	7.219
1078	63.798	6.248	7.586
1079	28.652	78.307	8.598
1080	82.623	70.736	6.478
1081	88.817	67.493	5.484
1082	50.710	75.002	8.921
1083	86.350	62.757	3.666
1084	22.633	65.165	5.803
1085	58.635	56.053	6.336
1086	92.918	61.069	7.361
1088	25.289	48.865	7.146
1089	43.726	29.018	8.021
1090	68.047	19.897	6.274
1091	9.739	20.013	5.822
1092	68.486	13.077	8.312
1093	48.976	18.359	9.427
1094	14.209	8.385	8.066
1095	20.319	3.719	4.438
1097	97.792	48.797	5.993
1098	104.495	25.780	2.965
1100	87.950	57.686	4.187
1101	69.451	45.104	5.758
1102	87.646	41.122	8.476
1103	9.183	27.990	5.662
1104	28.083	10.206	3.759
1105	11.368	3.716	5.230
1106	91.839	4.040	2.820
1107	34.798	80.431	3.474
1108	61.069	76.814	6.157
1109	12.057	79.872	3.401
1111	96.576	74.454	4.934
1112	76.301	64.886	2.710
1114	41.713	61.034	2.426
1115	63.153	60.183	3.462
1116	58.512	61.809	7.329
1117	103.094	55.243	9.667
1118	86.683	51.842	6.026
1119	103.527	44.169	4.170
1120	33.009	44.746	2.825
1122	56.469	67.164	3.579
1124	106.048	69.808	5.950
1125	22.447	41.595	4.420
1128	67.075	26.287	5.159
1129	91.096	25.735	7.581
1130	107.910	21.128	4.995
1131	95.909	20.734	8.625
1134	50.255	65.923	6.929
1135	42.288	10.621	4.254
1136	3.270	7.488	6.907
1137	58.220	5.383	4.397
1139	103.903	7.999	6.802
1145	107.553	12.657	7.886
1146	50.903	70.609	13.116
1148	58.436	72.985	9.975
1149	88.508	8.443	21.559
1150	34.602	77.114	21.602
1151	54.278	69.705	17.139
1152	23.450	65.193	19.619
1153	86.189	60.115	15.541
1154	63.132	54.040	23.404
1155	64.069	47.635	20.440
1156	100.296	42.722	18.250
1157	69.829	40.618	19.978
1158	84.216	30.988	21.734
1159	14.258	17.567	21.632
1160	6.726	20.026	20.703
1161	56.750	20.984	20.070
1162	76.941	20.281	22.197
1163	36.374	16.141	18.515
1164	28.064	18.288	17.113
1165	72.534	8.303	18.723
1166	25.839	3.246	19.657
1167	80.844	81.913	21.173
1168	38.662	9.377	19.791
1169	96.681	14.077	20.584
1170	69.133	27.977	22.012
1171	44.347	39.855	19.447
1172	25.050	82.631	19.329
1173	108.843	74.892	16.772
1174	16.403	70.392	19.517
1175	84.786	66.737	19.613
1176	74.061	60.867	21.089
1177	7.610	48.599	25.776
1178	46.868	46.641	16.832
1179	23.326	37.361	20.038
1181	94.545	73.609	16.833
1182	39.264	14.829	23.815
1184	8.782	76.085	21.190
1185	103.698	68.667	22.153
1186	34.830	55.814	22.573
1187	18.931	47.311	22.168
1188	104.703	47.522	22.883
1189	94.680	46.268	16.590
1190	20.789	42.099	21.891
1191	77.704	39.965	21.070
1192	18.140	1.906	22.066
1193	76.543	74.320	22.128
1194	27.248	71.589	17.406
1195	69.897	65.312	18.344
1198	64.362	22.470	20.089
1199	80.806	11.234	19.317
1201	29.935	66.029	16.260
1202	95.243	67.047	19.461
1203	7.635	64.104	18.699
1204	106.445	61.221	19.887
1205	80.167	34.362	18.913
1206	21.007	55.721	25.702
1207	85.750	44.478	23.703
1208	96.315	35.728	20.035
1209	88.379	35.350	18.585
1210	6.065	33.111	17.210
1211	30.612	30.642	18.288
1212	46.610	26.696	23.529
1213	94.962	28.544	20.422
1214	26.901	25.338	18.894
1215	17.935	18.642	18.518
1216	104.912	44.745	16.598
1217	79.632	84.137	27.031
1218	19.335	33.207	21.314
1219	36.919	36.996	18.332
1220	6.318	56.960	22.280
1221	38.382	52.940	19.736
1222	84.609	39.803	19.595
1223	8.584	36.928	21.491
1224	11.185	26.898	16.979
1225	101.156	26.652	19.187
1226	77.167	25.973	22.066
1227	72.323	23.597	21.215
1228	95.413	22.320	18.794
1229	52.858	37.298	22.295
1230	52.403	15.931	22.275
1231	48.388	12.164	19.403
1232	26.831	7.219	16.531
1233	21.435	3.885	14.574
1234	102.906	82.017	16.941
1235	15.974	80.672	20.566
1236	4.426	70.282	20.051
1237	40.139	59.414	19.063
1239	2.286	40.510	24.040
1240	103.320	12.286	21.939
1241	53.906	80.455	20.728
1242	33.078	84.194	22.542
1243	17.730	11.867	24.606
1244	31.171	41.547	20.310
1245	48.062	39.695	24.251
1246	12.877	30.726	22.446
1248	97.871	23.623	23.463
1249	34.552	22.706	19.652
1250	22.298	12.751	20.102
1252	46.902	83.584	23.206
1253	44.486	54.322	15.322
1254	72.017	71.654	24.700
1255	86.439	57.811	23.472
1256	78.744	55.712	23.563
1257	91.606	57.171	20.029
1258	46.046	51.955	21.402
1259	13.024	49.456	23.842
1260	27.000	44.569	22.818
1261	6.506	42.882	19.847
1262	12.958	37.266	24.084
1265	24.409	29.622	25.975
1266	8.236	62.721	24.576
1267	98.897	73.305	27.321
1268	35.075	67.220	12.509
1269	86.692	70.606	23.216
1270	60.118	65.443	22.185
1271	66.483	69.903	22.525
1272	98.524	51.136	21.011
1274	40.037	49.578	23.831
1275	88.523	9.514	27.951
1276	42.990	7.674	24.471
1277	82.684	73.916	21.001
1278	6.496	8.751	27.843
1279	99.256	65.618	23.902
1280	58.370	37.167	25.884
1281	103.093	32.360	23.178
1282	42.712	34.128	22.843
1283	8.507	15.539	22.419
1284	62.909	13.802	20.648
1286	8.473	82.896	22.545
1287	6.691	74.719	26.066
1288	27.662	77.598	21.645
1289	1.730	19.597	15.309
1290	17.094	24.025	23.639
1291	42.938	17.134	19.795
1292	109.009	80.890	19.817
1294	45.481	77.783	21.196
1295	61.695	79.731	23.603
1296	40.242	77.778	25.401
1298	101.114	65.633	17.226
1299	80.539	62.213	22.495
1300	60.681	59.632	21.461
1302	53.549	62.285	20.542
1303	63.306	39.781	21.435
1304	107.018	40.854	22.043
1305	100.593	40.115	24.526
1306	62.634	33.071	19.274
1307	35.386	28.291	20.626
1308	57.278	30.002	25.360
1309	9.287	27.590	26.333
1310	81.390	22.982	25.338
1311	31.685	14.903	21.144
1312	14.146	43.234	24.137
1313	85.890	25.202	18.890
1314	93.149	5.984	18.943
1315	51.472	46.427	20.414
1316	82.837	17.047	20.362
1317	23.143	19.050	21.774
1318	109.426	15.253	17.977
1319	56.389	11.596	24.040
1321	59.989	9.653	18.674
1322	49.046	6.307	18.765
1323	22.374	7.993	21.154
1324	56.729	4.067	23.487
1325	72.194	43.856	24.445
1326	8.453	4.231	21.477
1327	21.465	78.134	20.357
1328	69.149	81.852	27.110
1329	9.161	70.840	23.509
1331	11.381	68.148	19.157
1332	95.461	58.828	23.636
1333	81.796	56.856	16.954
1334	89.068	53.338	24.024
1335	83.815	49.976	22.498
1337	68.947	16.539	19.387
1338	38.134	76.434	30.941
1339	66.382	8.018	18.705
1340	16.840	70.352	12.416
1341	18.756	60.462	14.303
1342	38.178	56.563	12.749
1344	15.584	54.698	17.483
1345	7.758	53.075	12.596
1346	32.389	49.756	16.589
1347	91.813	41.784	19.422
1348	9.307	40.781	15.205
1349	74.915	42.004	15.051
1350	52.698	37.287	15.763
1351	34.156	28.774	14.029
1352	75.529	29.725	16.849
1353	107.887	20.921	15.783
1354	89.605	19.454	16.025
1355	62.911	20.624	5.606
1356	58.392	3.260	17.056
1358	6.655	85.214	8.393
1359	76.654	73.022	10.043
1360	13.279	77.989	13.469
1361	20.352	83.036	15.103
1362	83.177	9.245	13.352
1363	43.183	30.488	15.860
1364	56.850	33.860	18.855
1365	7.971	19.802	14.709
1366	43.571	15.150	14.872
1367	103.922	13.356	15.090
1368	94.552	13.970	14.336
1369	32.364	4.456	16.077
1370	40.205	83.273	17.317
1371	81.435	78.744	13.095
1372	101.505	18.511	19.937
1373	89.060	75.463	18.391
1374	21.083	65.744	12.943
1375	71.014	61.686	14.165
1376	63.727	43.422	14.354
1377	107.716	38.466	15.939
1378	2.485	38.559	16.538
1379	26.611	33.893	14.490
1381	34.105	12.202	15.822
1382	7.865	12.973	15.413
1383	103.693	72.947	13.536
1384	8.579	74.901	12.577
1385	90.321	70.472	10.914
1386	107.929	72.907	9.848
1387	21.278	53.476	16.396
1388	61.622	51.070	12.540
1389	99.548	41.460	8.016
1390	42.282	40.418	13.216
1391	46.217	34.812	13.042
1392	63.233	36.214	14.196
1393	32.625	37.054	14.604
1394	79.746	31.388	6.582
1395	24.841	28.771	15.637
1396	11.146	58.107	14.611
1397	22.538	21.650	15.444
1398	3.200	12.228	11.876
1399	78.738	6.721	16.983
1400	24.463	10.794	12.618
1401	47.922	1.637	10.452
1403	49.025	81.395	10.392
1404	39.182	79.192	10.884
1405	26.196	76.364	13.252
1407	34.334	17.954	13.199
1408	14.766	37.549	17.559
1409	82.736	66.324	13.839
1411	43.762	68.591	15.170
1412	88.170	50.575	12.594
1413	41.716	53.113	9.110
1414	63.396	54.098	17.102
1415	45.907	46.277	10.137
1416	22.127	42.712	14.874
1417	88.504	29.706	13.084
1418	45.455	21.221	15.653
1420	33.860	78.585	14.166
1422	73.338	52.026	13.515
1423	69.327	44.927	11.915
1424	80.204	34.379	12.982
1425	83.018	29.910	16.536
1426	7.637	28.535	12.376
1427	69.941	29.558	13.222
1428	86.003	24.060	11.577
1429	54.820	16.320	11.389
1430	87.882	14.459	7.474
1431	78.998	53.991	10.980
1432	106.388	66.243	14.202
1435	74.643	18.414	15.631
1436	51.299	15.528	16.306
1437	74.535	79.424	18.606
1439	79.650	68.864	18.482
1440	57.275	50.027	17.047
1441	89.950	48.240	19.906
1442	7.355	46.679	14.972
1443	68.851	49.094	18.610
1444	48.756	40.993	17.734
1445	27.856	42.174	14.732
1446	75.841	13.814	17.721
1447	45.105	6.612	14.459