ITEM: TIMESTEP
42.34306874026412
ITEM: NUMBER OF ATOMS
1472
ITEM: BOX BOUNDS
1.0317460317460316 110.39682539682539
1.0317460317460316 87.28571428571428
2.5 48.0
ITEM: ATOMS id x y z
1	91.682	37.855	33.121
2	69.879	37.282	31.302
3	94.923	30.218	29.283
4	75.925	28.464	34.007
5	52.760	18.711	34.440
6	39.436	16.172	29.676
7	58.578	13.756	35.522
9	21.204	82.728	35.048
10	68.992	82.234	34.101
11	88.862	78.484	30.980
12	98.653	76.442	34.911
13	57.423	59.617	31.819
14	26.876	56.701	31.345
16	3.956	39.093	30.785
17	70.852	38.420	24.737
18	107.618	35.892	34.454
20	79.286	36.598	37.242
21	50.581	40.144	31.163
22	2.586	45.895	27.395
23	87.651	53.969	34.109
24	25.971	71.406	31.452
25	51.245	59.948	30.936
26	81.970	57.795	39.652
27	13.810	47.090	32.631
28	61.327	45.579	32.622
29	109.539	42.363	36.050
30	72.459	32.228	30.107
31	10.070	28.285	37.432
32	20.434	13.310	32.986
33	47.621	17.427	35.261
34	11.970	3.193	32.872
37	103.741	80.697	31.836
38	34.693	81.896	34.373
39	40.563	82.495	35.650
41	36.687	59.863	33.019
42	40.888	54.041	34.414
43	65.725	58.229	32.628
44	27.285	6.786	32.510
45	95.059	14.855	32.977
46	82.219	4.589	28.649
47	62.276	78.488	31.634
48	75.011	81.899	30.155
50	31.133	74.335	29.541
52	34.243	73.173	34.238
53	65.405	67.352	28.380
54	95.319	68.189	28.469
56	30.456	60.505	25.523
58	18.421	58.390	31.565
59	56.451	45.974	28.613
60	43.619	36.110	28.964
61	46.433	31.116	31.429
63	89.876	19.479	30.969
64	40.528	22.179	30.738
65	14.973	16.788	31.904
66	65.309	18.913	26.503
67	7.844	83.510	29.119
68	73.672	52.030	30.683
69	54.872	77.772	31.604
70	85.950	36.768	33.883
71	66.976	42.406	29.074
72	13.042	74.710	30.314
73	109.259	72.943	31.919
74	44.830	60.669	29.579
75	100.759	30.749	29.007
76	79.945	22.464	33.892
77	53.271	12.985	33.167
78	11.396	11.421	28.470
79	32.661	8.443	30.117
80	51.469	9.503	28.891
81	42.066	40.108	32.446
82	79.771	9.830	30.555
83	100.843	6.013	33.249
84	94.638	3.247	27.587
85	61.817	5.349	27.529
87	86.985	75.895	24.538
88	105.707	69.816	27.450
89	100.700	66.334	29.817
90	69.527	63.575	31.704
91	15.273	51.809	28.384
92	73.990	12.404	31.913
93	76.014	5.579	28.656
94	26.490	11.525	34.611
95	81.194	14.870	33.188
96	48.025	25.203	40.474
97	89.608	25.372	33.117
98	71.874	20.859	34.264
99	67.942	24.378	37.901
100	95.546	20.223	35.426
101	76.074	16.245	37.720
102	35.226	15.099	35.775
103	14.157	12.090	34.974
104	96.166	7.815	39.106
105	107.827	29.291	33.237
106	16.606	7.332	35.418
108	12.519	82.851	32.928
109	79.068	73.760	35.854
110	62.941	70.897	32.452
111	18.122	74.501	30.766
112	36.744	67.603	33.620
113	17.275	55.716	36.279
114	92.953	54.825	30.229
115	86.801	47.606	34.419
116	67.345	8.300	35.583
117	27.559	44.408	35.138
118	80.888	32.557	32.191
119	96.317	33.369	36.346
120	92.979	45.706	32.204
121	11.035	34.789	35.353
122	56.517	28.716	34.360
123	89.207	30.311	35.650
124	28.222	27.535	37.493
125	33.348	24.941	38.901
126	14.371	15.975	39.897
127	47.124	5.744	34.047
129	47.733	34.177	36.308
131	85.186	78.209	37.800
132	67.819	74.072	33.004
133	40.114	72.940	36.113
134	94.403	73.581	32.454
135	6.341	72.543	34.909
136	30.317	61.214	33.470
137	11.295	62.981	32.048
138	49.417	53.200	35.405
139	51.118	46.577	30.838
140	64.014	86.648	37.050
141	37.220	86.035	29.503
142	59.354	33.198	31.590
143	86.167	21.114	35.606
144	48.726	10.653	36.078
145	5.562	5.741	36.198
147	93.382	81.603	32.384
148	87.965	73.043	36.526
149	50.281	74.507	30.927
150	79.791	62.947	33.216
151	42.305	65.492	34.061
152	16.833	66.121	30.829
153	25.188	28.897	31.867
154	53.770	65.923	30.462
155	40.762	49.405	31.976
156	35.806	45.851	29.817
157	31.633	21.329	34.106
158	62.476	28.239	30.485
159	43.801	27.028	35.278
161	13.217	25.385	32.115
162	102.640	20.017	34.482
163	24.393	22.329	33.911
164	87.473	47.148	28.458
166	31.980	33.964	32.316
167	100.534	41.573	31.903
168	100.871	12.506	38.524
169	90.595	10.866	33.471
170	85.260	7.127	33.951
172	103.345	63.234	33.109
173	34.587	48.543	36.533
175	71.673	47.019	36.427
176	20.860	45.618	35.086
177	26.318	38.674	32.758
178	19.432	29.051	36.095
179	86.371	82.771	35.036
180	73.730	66.174	36.227
184	3.131	58.485	34.259
185	101.621	56.258	33.607
186	9.424	49.406	35.061
187	73.481	45.936	29.516
188	28.141	17.140	35.123
189	81.216	41.775	32.441
191	42.837	73.636	29.392
193	59.069	84.565	26.328
194	99.039	77.932	27.381
196	58.421	44.439	20.778
197	98.847	44.577	25.971
198	62.197	43.856	25.425
199	43.299	44.992	23.112
200	64.453	35.320	24.601
201	13.210	20.648	27.945
202	57.286	14.294	29.195
203	29.403	15.948	27.510
205	11.346	5.198	26.918
206	85.968	83.097	26.786
207	104.989	63.833	26.054
208	13.320	60.478	22.108
209	52.975	55.482	27.350
210	35.298	48.123	22.929
211	29.416	4.990	24.459
212	70.276	7.651	28.516
213	35.277	9.748	25.530
214	94.212	10.139	28.341
215	51.458	34.539	29.403
216	94.149	17.238	25.663
218	49.749	79.590	26.259
219	16.224	81.662	28.567
221	77.063	76.443	30.009
222	15.798	74.767	22.852
223	69.078	75.507	27.469
224	90.750	45.340	24.647
225	78.254	69.655	26.576
226	73.579	64.412	26.062
227	100.104	58.988	21.953
228	13.930	56.913	28.793
229	22.065	48.446	27.579
230	105.406	45.416	28.943
231	18.520	42.379	26.741
232	107.486	33.904	28.431
233	6.736	23.288	26.948
234	74.746	11.098	25.441
235	30.338	71.700	24.948
236	7.243	42.120	26.467
237	82.244	37.048	27.378
238	21.831	37.004	28.190
239	3.216	12.700	22.705
240	107.358	6.638	28.015
241	73.609	84.143	25.798
242	102.529	79.025	22.386
243	86.169	81.840	17.116
244	45.158	82.989	29.870
245	25.267	65.629	25.095
246	45.648	60.825	22.636
247	69.258	51.182	24.481
248	89.379	12.018	24.356
250	69.102	34.726	22.044
251	29.959	26.566	24.533
252	50.388	27.221	32.981
253	72.221	20.538	26.684
254	82.051	17.918	27.606
255	88.187	19.108	22.972
256	100.624	15.598	27.764
257	45.955	15.238	27.403
258	68.078	11.500	23.108
259	38.498	42.807	19.076
260	75.774	32.238	24.922
262	39.296	25.005	25.553
263	79.860	27.932	29.467
264	93.792	24.441	27.099
265	66.336	24.679	27.101
266	45.394	20.095	24.645
267	26.721	20.994	28.448
268	20.443	85.460	25.393
269	105.738	83.277	25.083
270	66.302	83.247	22.564
271	47.842	73.854	24.596
272	51.222	19.210	28.147
273	19.176	69.508	26.152
275	48.824	66.592	19.578
276	66.585	61.181	27.165
277	27.833	49.241	26.980
278	74.822	49.904	21.974
279	87.501	36.352	23.900
280	40.354	39.290	25.049
281	50.077	31.624	23.546
282	57.660	24.534	26.381
283	7.831	69.380	28.878
284	75.801	40.599	27.881
285	78.017	48.900	26.948
286	55.810	50.940	23.361
287	93.125	32.425	24.895
288	15.962	29.790	28.471
289	102.565	26.384	33.389
290	20.351	25.953	29.387
291	45.649	10.825	30.948
292	32.528	80.518	26.031
293	54.503	69.008	22.794
294	35.827	59.684	27.340
295	83.424	51.068	27.772
296	97.490	36.726	29.143
297	80.999	43.317	25.411
298	40.213	29.677	30.022
299	86.442	30.435	30.008
300	84.995	24.739	29.074
301	46.662	19.814	31.102
302	97.772	20.954	29.629
303	105.169	18.992	26.052
304	59.514	17.887	24.658
305	77.302	14.816	28.656
306	22.149	14.044	26.052
307	62.859	29.315	24.237
308	7.304	16.602	28.661
309	15.610	35.462	29.002
310	32.517	40.201	26.457
312	88.346	70.277	30.007
313	12.460	70.048	33.449
314	40.343	63.373	24.393
316	65.644	50.204	31.587
317	16.845	41.966	33.406
318	60.222	39.803	30.098
319	59.035	20.910	32.341
320	95.146	41.272	30.180
321	72.230	27.175	26.943
322	6.136	2.317	28.236
325	56.365	75.049	24.872
326	60.645	64.411	28.735
327	7.637	59.254	29.437
328	32.882	55.757	30.267
329	59.275	51.167	29.239
330	44.235	44.104	28.415
331	64.302	23.833	33.613
332	83.588	78.271	31.589
333	66.558	14.008	27.843
335	79.009	54.596	29.086
336	8.236	53.432	31.303
337	9.656	42.718	32.910
338	28.658	35.906	26.570
339	4.850	27.392	31.831
340	34.124	20.888	25.947
341	108.018	24.167	30.097
342	40.873	7.556	30.807
344	107.257	57.519	26.646
346	27.216	83.593	25.608
348	40.227	68.910	26.389
349	94.775	63.199	29.000
350	18.620	61.083	24.712
352	61.685	57.041	28.854
353	40.454	56.555	27.844
354	98.363	51.296	28.162
356	16.834	6.734	26.227
357	73.223	55.786	25.396
358	14.453	64.209	26.768
359	23.522	77.877	30.438
360	35.636	68.988	22.159
361	22.751	62.622	29.251
362	80.567	60.161	27.978
363	46.373	54.729	26.999
364	51.244	45.776	25.280
365	24.868	44.314	29.696
367	34.621	33.255	27.108
368	99.831	57.632	29.057
369	100.774	37.428	35.864
370	90.637	28.680	21.477
371	32.801	27.216	30.880
372	18.865	19.073	28.056
373	62.433	11.103	24.909
374	23.578	8.057	28.461
375	84.719	3.420	23.470
378	46.959	67.237	26.941
379	9.136	34.101	29.102
380	98.632	48.268	35.055
381	30.290	49.170	34.681
384	83.116	80.591	47.380
385	66.732	75.117	46.137
386	10.913	72.274	45.531
387	86.676	66.083	44.571
388	87.384	60.368	43.946
389	51.173	55.968	44.332
391	90.439	51.230	43.663
394	92.214	45.228	43.042
395	56.054	46.971	47.290
396	42.331	41.713	43.923
397	55.167	38.675	43.403
398	43.274	24.275	44.609
399	66.981	21.392	42.125
400	61.848	16.325	44.821
401	78.110	10.817	44.605
402	51.933	8.861	44.221
403	27.543	28.221	43.095
405	28.353	45.574	46.145
406	61.529	80.676	37.385
410	77.711	44.633	43.937
411	92.018	30.652	40.970
412	11.424	20.068	43.386
413	90.177	20.016	43.042
414	72.408	16.360	42.872
415	101.218	10.833	45.927
416	29.962	13.431	45.829
417	109.691	74.682	43.492
418	42.082	66.577	43.936
419	53.472	65.050	41.064
422	44.753	49.943	41.491
423	23.132	58.016	41.487
424	17.028	52.072	45.028
426	80.996	10.629	40.127
427	65.082	10.269	45.462
428	72.809	7.022	35.902
429	45.957	79.856	46.084
430	17.335	71.800	42.894
431	100.920	71.940	45.448
432	59.609	61.013	39.398
433	13.214	59.543	43.635
434	92.829	37.185	46.224
435	49.142	38.282	47.564
436	13.722	38.281	44.138
437	25.425	33.804	40.585
438	62.953	29.389	46.519
439	55.663	81.807	41.405
440	87.181	33.344	45.684
441	11.433	27.718	44.051
443	86.578	5.478	44.086
445	39.318	1.757	40.944
446	69.806	83.694	39.903
447	8.676	76.095	38.403
448	69.507	75.889	39.505
449	75.441	56.701	40.613
450	56.395	26.801	43.413
452	26.087	2.428	40.349
453	75.242	24.090	38.658
454	18.400	77.647	43.433
455	39.557	72.866	42.074
456	50.677	76.310	42.981
457	67.053	68.016	44.683
458	23.864	67.214	41.599
459	107.604	68.731	43.896
460	45.858	62.308	44.851
461	96.883	66.468	43.046
462	34.497	58.625	43.758
463	9.268	12.370	41.283
464	98.046	54.615	41.503
465	105.179	44.657	41.054
466	11.945	45.863	40.651
467	44.269	34.624	43.516
468	99.890	30.471	41.075
469	48.886	30.211	46.451
471	73.086	28.868	44.185
473	19.921	21.268	42.183
474	8.901	50.674	44.085
475	24.296	75.844	46.016
476	67.142	84.359	46.575
477	102.854	85.084	44.968
479	60.986	37.041	43.250
488	88.629	26.295	41.979
494	5.295	72.693	43.959
495	27.666	63.484	46.408
497	80.838	50.695	44.071
498	101.188	22.663	45.628
499	100.625	49.965	45.651
500	65.424	55.169	40.162
501	44.473	56.639	43.715
504	91.185	55.705	40.593
514	41.457	7.402	44.097
517	90.026	80.492	47.225
518	58.911	76.167	40.867
521	29.433	67.911	43.573
522	41.117	16.721	43.422
523	28.744	57.054	43.094
525	2.107	39.805	43.184
526	81.906	17.443	46.485
528	94.625	8.666	44.413
530	62.106	4.245	45.420
531	29.200	82.990	45.147
532	99.493	82.900	39.795
533	34.542	66.258	44.546
534	102.793	64.887	40.590
535	35.536	20.978	44.163
536	19.930	61.726	42.980
537	108.284	39.978	44.491
539	27.087	40.848	43.137
540	84.604	24.616	45.469
544	70.084	7.121	45.073
546	57.234	53.258	44.519
550	108.071	31.445	44.990
551	51.993	29.558	40.674
552	4.613	22.053	45.168
553	18.499	14.789	43.859
555	108.335	2.895	44.833
556	49.217	85.951	40.834
557	74.255	74.896	45.701
558	30.145	78.049	42.174
561	64.081	63.392	42.496
562	15.194	65.615	43.389
563	73.278	50.881	42.530
565	26.006	45.021	40.367
566	8.063	38.590	42.140
569	40.169	33.697	46.829
570	32.657	72.411	40.584
571	96.435	54.235	36.057
573	65.411	41.248	43.523
574	5.143	26.521	40.437
575	6.070	15.294	33.868
576	61.158	9.044	33.381
577	86.445	13.405	37.657
578	52.881	6.551	33.372
580	26.696	72.309	40.214
582	80.643	53.659	35.143
583	45.591	30.529	40.615
584	33.542	53.886	35.680
585	3.818	50.473	35.127
586	94.419	42.174	37.952
587	27.969	38.083	38.438
588	83.171	31.288	37.793
589	84.222	26.795	35.544
591	55.881	18.853	38.566
592	72.905	11.268	41.638
593	60.155	13.055	40.985
594	27.415	50.622	41.297
595	24.358	10.165	40.739
596	37.352	34.434	42.193
597	66.102	45.614	35.058
598	6.142	19.601	37.989
599	83.143	3.781	37.948
600	92.601	81.306	40.787
601	103.201	85.015	35.227
603	91.255	70.513	40.519
604	20.507	63.443	37.950
605	53.634	60.753	36.481
606	90.200	35.692	38.651
607	7.183	42.627	37.492
608	61.643	24.668	41.346
609	29.796	15.947	40.854
610	30.391	7.406	39.118
611	10.850	6.949	38.485
612	62.905	6.401	39.905
613	18.747	85.041	41.043
615	61.825	64.860	35.922
616	36.001	60.967	38.362
617	53.940	50.991	39.247
618	46.522	19.662	40.024
619	11.714	20.032	36.280
620	21.229	8.857	36.932
621	57.735	83.415	33.099
622	78.164	79.021	40.049
623	17.745	69.501	37.078
624	68.537	68.998	36.527
626	24.312	58.904	35.830
627	92.668	61.862	36.164
628	8.661	60.011	40.489
629	87.575	41.652	35.949
630	36.245	42.713	34.339
631	48.057	81.331	35.875
632	46.441	38.935	38.229
633	29.465	70.314	36.411
634	97.592	71.353	40.636
635	28.603	64.779	30.861
636	93.179	68.343	34.985
637	5.080	66.478	33.321
638	97.970	65.764	36.364
639	75.923	57.089	34.849
641	56.994	50.220	34.880
642	28.174	78.376	35.314
644	36.335	8.893	35.895
645	107.804	9.385	36.834
647	25.308	80.464	40.143
650	45.238	75.033	36.915
652	46.428	58.590	36.568
653	67.859	60.170	38.053
654	22.618	52.940	36.366
655	88.833	7.531	39.108
656	57.318	43.599	41.588
657	76.624	35.984	31.535
658	36.652	32.593	34.416
659	63.241	31.202	40.613
660	66.992	28.399	34.033
661	102.651	32.777	35.155
662	81.005	20.080	38.992
663	64.947	19.154	35.436
664	42.458	12.416	35.630
665	68.754	13.929	35.493
666	63.866	37.240	35.001
667	50.456	6.603	23.243
668	103.698	25.575	38.972
669	14.245	41.134	38.917
670	6.456	78.338	32.322
671	105.318	75.524	37.881
672	59.232	71.180	37.617
673	25.586	70.605	46.028
674	72.824	66.555	42.190
675	87.290	67.488	35.154
676	2.993	69.090	40.367
677	9.390	68.066	40.696
678	28.860	63.618	38.725
679	104.077	77.116	44.383
680	2.689	64.020	38.356
681	34.865	39.802	39.811
682	33.029	28.077	45.173
683	79.688	24.398	42.652
684	52.859	12.419	39.661
685	42.897	84.750	40.487
686	94.274	76.180	39.824
687	21.868	75.293	36.462
688	74.156	61.073	44.377
689	85.823	64.056	39.619
690	69.144	46.691	42.496
691	41.688	59.573	37.843
692	61.921	86.448	42.535
694	85.124	37.234	40.045
695	48.252	14.979	45.015
696	12.296	81.419	39.029
699	79.353	73.748	42.528
700	33.339	77.473	37.671
701	80.403	66.398	41.627
702	106.637	53.084	41.112
704	38.309	55.144	41.246
705	22.098	40.170	40.108
706	6.995	32.765	41.468
707	96.459	26.931	38.337
708	50.482	22.069	44.448
709	96.086	16.318	41.113
710	37.474	20.168	38.457
711	65.544	14.309	39.921
712	17.969	8.699	42.490
714	50.832	43.391	41.289
715	22.298	28.999	42.553
716	33.534	50.376	43.720
717	100.624	47.882	40.709
718	75.118	41.932	36.210
719	60.135	40.932	36.081
720	55.351	37.419	36.385
721	77.462	39.136	43.482
722	67.722	36.042	39.641
723	79.594	30.493	42.734
724	40.758	25.389	40.070
725	61.191	19.608	40.176
726	18.249	21.104	35.921
727	60.884	52.086	38.026
728	107.155	4.027	37.369
729	40.765	78.600	41.846
730	54.304	74.768	36.984
731	54.565	68.500	36.127
732	14.281	63.883	37.664
733	76.520	46.311	38.540
734	45.806	47.926	34.925
735	91.521	49.215	38.150
736	98.765	38.515	40.610
737	72.884	35.157	38.893
739	37.708	48.058	40.478
740	46.766	63.984	38.329
742	85.052	50.678	39.953
743	40.599	38.764	39.160
745	106.341	35.559	40.947
746	26.082	19.947	40.569
748	35.798	9.393	43.864
750	20.341	3.940	39.566
752	68.547	51.711	38.094
753	18.653	47.098	41.846
754	107.630	46.392	44.893
756	16.285	31.329	41.865
757	91.756	21.766	38.370
758	46.508	9.145	41.036
759	78.487	6.196	35.852
760	55.076	4.273	40.424
761	6.317	82.845	39.855
762	13.543	51.849	40.378
763	78.400	6.058	23.863
764	40.908	44.398	35.405
765	47.764	2.036	25.056
766	77.856	19.618	11.276
767	28.587	14.269	9.083
768	92.628	9.868	4.542
769	36.618	6.943	9.110
771	28.890	66.657	7.286
772	24.196	70.058	12.408
773	52.568	59.352	4.434
774	84.554	56.955	9.357
775	72.406	50.211	7.901
776	43.616	48.637	7.064
777	109.298	37.557	9.294
778	74.078	28.970	6.861
779	71.189	8.543	3.627
780	9.811	9.072	9.304
784	66.414	69.742	11.581
785	11.305	15.962	11.117
787	38.122	35.579	8.682
788	88.139	33.522	6.859
789	21.805	52.997	10.281
790	87.721	45.053	6.062
791	5.964	49.605	6.274
792	102.219	28.989	8.577
793	107.317	24.951	8.984
794	15.847	25.215	11.253
795	38.886	21.577	10.566
796	27.311	20.585	9.269
797	3.990	18.282	7.510
798	105.954	63.679	7.477
799	52.116	11.391	12.817
801	75.649	76.770	7.952
802	18.213	65.647	8.342
803	72.026	57.380	9.587
804	66.128	55.657	8.510
805	48.008	49.882	5.090
807	74.980	42.790	9.428
808	26.591	36.935	10.307
809	73.797	10.469	11.870
810	20.199	58.367	8.305
811	38.144	59.381	6.946
812	92.866	38.295	6.504
814	78.332	25.735	11.684
815	101.342	15.775	8.540
816	77.174	5.187	8.999
817	71.343	79.546	8.126
819	107.549	78.431	7.911
820	16.222	69.484	4.499
821	77.678	67.394	9.608
822	65.904	30.677	9.497
823	62.545	68.136	6.508
824	19.119	53.886	5.079
825	54.776	49.148	6.810
827	2.862	39.365	5.180
828	70.947	38.438	6.726
829	45.128	36.992	6.165
830	33.173	32.317	5.661
831	16.454	31.730	6.981
832	36.593	27.914	6.857
833	36.318	64.872	4.413
834	12.011	48.705	5.525
835	82.648	36.988	7.473
836	14.306	35.812	11.047
837	9.215	39.015	8.842
838	52.997	40.009	5.563
839	107.731	31.856	4.705
840	95.004	30.747	7.649
841	49.507	29.307	6.814
842	6.522	22.271	10.048
843	16.388	18.794	13.062
844	41.857	18.753	6.642
845	73.432	17.399	7.849
846	70.853	33.012	3.355
847	98.751	4.892	6.972
848	58.513	86.382	11.968
849	32.717	72.636	8.321
850	71.342	68.272	8.022
851	7.099	60.379	6.947
852	101.226	59.503	4.450
853	10.548	55.616	8.211
854	46.864	55.434	4.513
855	20.450	47.619	9.094
858	68.408	53.093	12.444
859	41.922	65.427	8.925
861	33.847	56.067	12.442
862	61.614	58.297	11.574
863	101.090	53.111	14.066
864	15.983	51.245	10.948
865	46.876	41.473	9.903
866	19.394	31.455	12.638
867	69.099	7.311	7.891
868	54.823	6.037	10.077
870	94.059	55.361	12.221
871	36.251	83.377	7.985
872	26.800	56.750	9.976
873	107.099	49.829	13.046
874	88.620	42.893	13.957
875	77.801	47.649	12.532
876	3.778	44.901	11.142
877	36.515	40.725	11.927
878	28.146	29.321	7.991
879	49.354	35.872	9.610
880	50.286	26.733	13.894
881	76.278	61.779	9.486
882	56.329	28.988	14.372
883	66.192	61.343	9.911
884	33.730	61.597	9.904
885	95.317	48.439	10.087
886	53.138	56.526	9.594
887	102.869	46.758	10.592
888	106.291	31.687	11.502
889	42.906	25.830	11.324
890	94.274	23.896	12.886
891	64.993	23.887	10.501
892	71.351	22.581	10.364
893	59.780	20.637	13.468
894	57.002	67.305	9.887
895	80.810	14.481	13.904
896	99.590	10.556	18.090
897	72.868	5.204	12.483
898	91.690	83.502	13.040
900	75.023	81.037	12.627
901	64.355	81.809	9.452
902	55.342	75.523	13.667
903	98.775	65.208	12.001
904	92.403	64.519	11.141
905	44.593	13.906	9.254
906	32.184	25.081	8.938
909	62.180	28.798	15.123
910	48.790	23.992	9.229
911	93.015	15.283	9.015
912	16.173	12.696	12.317
913	38.954	2.904	12.195
914	106.161	4.337	14.027
916	11.624	67.291	6.792
917	83.424	61.716	7.241
918	64.640	38.085	6.636
919	32.764	48.857	8.022
920	27.550	42.786	9.060
921	64.407	48.784	8.863
922	57.930	34.628	12.625
923	83.925	18.885	9.590
924	89.112	7.249	10.943
925	22.166	11.366	7.035
926	26.824	4.721	7.525
927	52.063	81.951	3.225
928	11.979	85.108	7.853
929	11.637	43.610	11.333
930	67.677	14.345	14.986
931	102.606	38.252	12.435
932	83.978	48.822	10.027
933	40.686	82.937	6.013
935	15.573	59.831	9.792
936	79.073	48.183	5.123
937	76.850	33.927	7.395
938	34.151	24.644	14.574
939	33.703	11.656	6.544
940	49.841	5.955	8.272
941	65.408	9.050	11.852
942	55.363	43.100	10.523
943	33.011	1.053	10.126
944	57.177	79.664	10.997
945	108.031	81.920	14.876
946	98.847	77.482	11.488
947	19.189	73.969	8.461
948	69.559	76.782	12.689
949	40.929	72.963	6.413
951	12.104	74.201	8.213
952	45.885	59.476	10.842
953	22.554	80.866	6.675
954	34.358	19.238	7.028
955	14.844	12.872	6.505
956	81.401	13.025	7.453
957	77.638	60.221	3.948
959	51.101	46.349	3.111
960	106.491	37.978	3.109
962	15.178	25.122	4.417
963	54.677	24.172	5.800
964	20.883	20.703	4.558
965	96.253	14.914	2.602
966	15.612	59.254	2.944
973	24.451	73.469	7.451
981	46.110	22.447	3.211
983	85.039	5.893	2.543
985	100.977	85.229	3.919
986	56.997	76.036	3.935
987	6.418	75.316	6.911
990	29.935	60.456	4.479
992	7.048	43.828	6.341
995	76.630	9.298	5.462
1000	100.167	59.811	10.492
1001	8.759	53.605	2.865
1007	69.560	75.215	3.949
1010	104.924	53.067	3.599
1012	96.905	42.916	3.476
1017	4.759	32.209	5.000
1023	62.072	4.408	20.585
1026	27.371	44.602	2.664
1029	26.723	35.101	3.192
1032	28.470	24.375	3.493
1033	1.088	22.869	5.162
1035	32.919	2.392	3.244
1042	77.254	41.501	5.503
1045	22.749	30.128	4.617
1050	5.680	65.589	10.266
1051	83.037	23.777	4.531
1054	31.862	54.283	3.769
1055	69.790	53.211	5.547
1056	60.389	49.551	5.643
1057	83.079	42.856	9.120
1060	32.497	39.040	7.752
1061	98.267	35.252	7.417
1062	24.164	55.587	4.034
1063	19.918	35.754	5.655
1065	20.647	24.154	8.615
1066	101.309	22.067	7.328
1067	61.799	26.216	6.484
1068	45.012	4.052	3.454
1070	19.522	86.013	10.050
1071	17.451	80.043	7.423
1073	57.830	34.533	5.805
1075	46.752	68.404	6.981
1076	97.883	70.998	10.283
1077	49.296	12.636	6.103
1078	63.646	4.862	7.929
1079	29.354	78.649	8.244
1080	83.685	70.616	6.041
1081	89.668	68.197	6.185
1082	50.018	75.275	9.009
1083	87.395	63.305	3.161
1084	22.580	64.931	5.461
1085	58.672	55.307	6.663
1086	93.157	58.876	7.033
1088	27.400	47.969	6.946
1089	41.486	29.023	6.457
1090	67.522	19.298	6.910
1091	9.808	19.717	5.614
1092	69.134	13.407	7.152
1093	49.824	18.567	9.857
1094	15.248	6.779	8.648
1095	20.075	4.131	4.089
1097	98.658	48.403	5.645
1098	104.837	25.575	4.103
1100	87.817	57.750	4.031
1101	69.878	44.123	4.864
1102	87.411	39.906	9.377
1103	8.220	27.641	6.383
1104	29.385	9.447	3.457
1105	10.621	4.160	5.634
1106	91.400	3.927	2.669
1107	36.095	80.123	2.554
1108	61.964	78.543	5.491
1109	12.796	81.256	2.691
1111	97.143	74.836	5.458
1112	77.730	65.390	2.995
1115	64.039	58.297	3.321
1116	58.763	60.850	5.976
1117	104.470	54.612	9.235
1118	87.313	50.459	6.040
1119	102.908	42.974	3.884
1120	34.774	43.793	3.527
1122	56.732	66.662	4.354
1124	107.499	68.624	4.931
1125	21.618	40.981	4.406
1128	68.096	25.306	5.446
1129	90.267	25.395	6.969
1130	108.113	19.784	4.501
1131	95.548	20.230	7.450
1134	49.645	62.746	6.786
1135	42.949	11.403	4.696
1136	2.770	8.021	6.605
1137	58.466	5.374	4.191
1139	103.776	7.416	6.887
1145	109.155	11.357	7.432
1146	51.149	70.319	12.038
1148	59.761	73.623	8.944
1149	88.434	6.987	20.755
1150	34.941	77.361	20.456
1151	54.386	70.574	17.479
1152	22.706	65.794	20.342
1153	87.459	60.401	13.627
1154	64.055	54.169	24.218
1155	64.486	46.263	19.114
1156	99.712	42.413	18.422
1157	68.331	40.570	19.059
1158	84.616	30.345	22.984
1159	14.901	17.601	23.504
1160	5.102	21.732	20.496
1161	56.254	21.280	21.348
1162	76.088	19.183	22.609
1163	35.902	16.109	18.293
1164	27.462	18.427	16.335
1165	71.331	7.017	19.139
1166	26.112	3.275	19.290
1167	82.648	82.073	20.513
1168	39.030	9.786	20.169
1169	94.710	14.259	20.864
1170	69.839	28.638	22.324
1171	44.908	38.271	18.871
1172	24.362	82.012	19.348
1173	109.761	74.586	15.368
1174	14.776	71.702	19.016
1175	84.191	66.918	19.903
1176	74.190	60.458	21.657
1177	8.181	49.504	26.068
1178	46.015	48.161	17.786
1179	22.184	37.423	19.413
1181	94.692	73.271	16.487
1182	39.224	15.701	24.349
1184	9.104	76.324	20.053
1185	103.953	67.577	21.361
1186	34.257	55.679	22.864
1187	19.116	48.258	21.387
1188	103.661	46.536	22.169
1189	95.329	46.314	15.996
1190	20.189	42.780	20.982
1191	76.159	39.287	20.217
1192	19.531	2.587	21.744
1193	76.403	75.099	23.535
1194	27.337	70.503	17.255
1195	69.878	64.947	19.126
1198	64.674	22.538	20.449
1199	79.788	9.628	20.332
1201	31.458	65.907	17.339
1202	95.512	67.316	18.486
1203	7.863	62.221	18.949
1204	107.006	61.165	18.894
1205	80.378	33.321	19.563
1206	22.242	55.715	24.759
1207	86.126	43.410	22.605
1208	96.760	34.331	19.638
1209	89.332	34.863	17.366
1210	4.844	32.455	17.242
1211	31.369	30.078	18.771
1212	46.419	26.536	24.960
1213	96.061	28.300	20.169
1214	27.764	24.168	18.720
1215	17.431	19.922	19.382
1216	106.047	44.353	16.421
1217	80.001	82.151	25.520
1218	18.664	33.090	20.501
1219	36.706	36.936	19.281
1220	6.835	56.867	22.681
1221	38.992	52.798	18.741
1222	84.680	39.544	19.413
1223	7.861	37.098	20.322
1224	11.654	27.954	15.959
1225	101.169	26.148	18.863
1226	77.820	24.891	23.336
1227	72.752	23.596	20.236
1228	95.747	20.979	18.858
1229	52.647	39.071	23.008
1230	52.539	15.451	22.351
1231	46.915	10.994	20.206
1232	27.146	7.421	15.915
1233	21.236	4.454	14.069
1234	103.166	81.409	17.530
1235	14.768	80.987	19.647
1236	4.941	71.651	20.897
1237	38.900	58.791	19.025
1239	3.306	39.290	24.576
1240	104.108	11.882	21.458
1241	53.461	80.772	21.639
1242	33.057	85.463	22.490
1243	17.746	12.473	24.118
1244	31.298	43.767	19.876
1245	47.857	39.617	24.890
1246	12.254	31.098	22.367
1248	98.616	23.401	23.919
1249	35.922	22.624	19.576
1250	23.130	12.821	20.472
1252	47.650	83.661	21.657
1253	43.572	56.912	15.832
1254	73.283	71.382	25.123
1255	85.108	57.867	23.652
1256	79.569	55.920	22.564
1257	91.585	56.979	19.964
1258	48.263	52.228	22.865
1259	13.392	50.812	23.359
1260	27.347	42.515	23.393
1261	7.167	43.332	19.922
1262	13.043	36.602	23.435
1265	23.425	30.800	25.904
1266	7.803	64.346	25.095
1267	99.695	73.148	25.520
1268	35.156	66.379	12.272
1269	87.181	70.646	23.037
1270	57.803	64.910	23.431
1271	66.918	68.822	22.770
1272	97.233	50.547	22.081
1274	41.318	49.948	24.113
1275	88.517	7.581	27.926
1276	43.877	6.903	25.890
1277	82.331	71.890	22.561
1278	5.823	8.034	26.017
1279	97.824	65.312	23.535
1280	57.182	36.678	25.134
1281	102.964	33.163	24.474
1282	43.554	33.091	21.491
1283	9.210	16.334	23.467
1284	61.247	13.775	20.028
1286	8.096	82.450	22.891
1287	5.674	75.011	26.039
1288	26.802	77.677	21.439
1289	2.171	17.269	14.573
1290	18.491	25.041	24.601
1291	42.477	16.812	20.452
1292	109.716	79.308	19.840
1294	45.617	77.750	21.057
1295	62.863	78.089	25.812
1296	40.109	78.567	25.072
1298	101.824	64.747	16.990
1299	80.385	62.752	21.967
1300	60.990	58.619	21.162
1302	54.087	61.250	18.764
1303	62.235	39.264	19.913
1304	107.863	42.488	23.508
1305	101.434	39.673	22.579
1306	63.152	32.903	18.829
1307	36.520	28.466	20.579
1308	55.531	28.774	24.427
1309	9.396	28.133	25.087
1310	81.947	21.979	24.822
1311	31.036	16.135	20.695
1312	12.599	44.233	24.000
1313	85.682	24.924	20.377
1314	94.163	4.521	20.467
1315	52.180	47.999	20.004
1316	82.667	16.569	22.128
1317	23.438	18.861	22.821
1318	109.109	14.019	17.990
1319	56.188	10.907	23.157
1321	58.683	8.554	19.319
1322	47.923	5.412	18.130
1323	23.325	7.845	20.472
1324	57.870	3.460	23.627
1325	70.938	44.078	23.875
1326	8.459	5.513	21.475
1327	20.421	77.618	20.236
1328	68.819	81.678	28.281
1329	10.552	70.999	22.485
1331	10.380	67.133	18.879
1332	94.197	58.964	25.538
1333	82.829	56.466	16.146
1334	91.361	53.226	24.728
1335	83.927	50.980	21.257
1337	70.091	15.524	20.694
1338	37.402	78.201	30.154
1339	65.260	8.906	17.915
1340	14.684	71.034	12.721
1341	19.371	60.121	14.119
1342	39.112	55.951	12.573
1344	15.263	53.306	17.184
1345	7.373	52.873	11.644
1346	30.901	50.435	17.886
1347	92.065	40.982	18.977
1348	9.375	40.559	15.701
1349	76.190	39.817	13.872
1350	50.364	37.651	17.264
1351	35.225	31.306	13.063
1352	76.374	27.745	18.541
1353	107.310	20.890	16.512
1354	89.373	18.784	15.943
1355	62.969	22.175	6.597
1356	57.041	3.224	17.117
1358	6.034	86.356	9.557
1359	76.262	73.922	12.585
1360	12.493	79.504	12.576
1361	19.685	82.528	15.590
1362	82.508	8.072	12.754
1363	43.228	30.670	15.262
1364	57.408	33.375	18.466
1365	8.904	20.179	15.854
1366	43.444	14.336	15.113
1367	104.075	12.359	14.917
1368	92.285	13.142	13.585
1369	32.052	4.199	15.985
1370	41.534	83.519	16.064
1371	81.470	78.827	12.998
1372	102.103	18.349	20.454
1373	88.437	76.094	18.705
1374	20.972	65.208	13.244
1375	72.110	60.686	15.619
1376	63.877	43.009	12.623
1377	107.721	38.798	15.368
1378	2.218	40.439	15.424
1379	26.980	34.563	16.298
1381	35.300	12.229	13.999
1382	8.719	13.357	15.554
1383	104.841	72.277	12.922
1384	7.896	74.379	12.085
1385	89.792	70.511	11.212
1386	108.975	72.434	9.428
1387	20.768	53.361	15.606
1388	62.841	51.113	13.424
1389	100.238	41.485	7.956
1390	43.834	40.088	13.795
1391	45.738	34.636	13.885
1392	62.924	36.864	12.064
1393	32.949	35.765	14.429
1394	80.965	29.491	6.049
1395	24.809	29.587	15.858
1396	12.379	59.103	14.004
1397	23.085	22.906	15.797
1398	5.194	12.831	11.090
1399	76.960	5.959	17.007
1400	25.356	11.280	12.460
1401	46.461	2.605	11.958
1403	48.078	80.525	8.519
1404	40.370	77.985	10.073
1405	25.846	75.995	12.820
1407	32.609	18.916	13.379
1408	14.597	36.477	18.166
1409	83.185	66.415	13.534
1411	43.596	70.158	13.335
1412	88.970	49.609	13.311
1413	43.367	54.251	8.854
1414	63.230	52.909	19.309
1415	47.294	46.817	11.753
1416	22.595	42.019	15.543
1417	88.586	30.518	12.162
1418	44.375	20.233	16.147
1420	33.573	77.904	12.880
1422	74.068	52.979	13.287
1423	69.593	44.648	9.821
1424	81.521	32.477	13.303
1425	83.868	28.340	15.394
1426	7.921	30.560	12.140
1427	71.191	28.352	12.691
1428	86.565	22.518	13.981
1429	55.659	15.809	10.919
1430	88.004	13.312	7.549
1431	79.780	53.837	10.599
1432	105.802	66.426	13.107
1435	73.477	19.613	14.894
1436	49.264	14.505	16.348
1437	75.579	80.074	19.505
1439	78.677	68.614	17.938
1440	57.527	51.600	18.055
1441	89.844	49.052	19.174
1442	8.781	47.452	14.631
1443	69.715	49.566	17.595
1444	48.087	42.068	18.058
1445	28.568	42.368	15.085
1446	75.537	14.260	17.843
1447	44.170	7.208	13.859
1448	13.353	85.072	12.872
1449	64.587	75.396	15.965
1450	39.744	78.362	17.132
1451	46.751	72.568	17.688
1452	23.067	59.283	19.838
1453	55.428	56.055	15.731
1454	108.024	54.747	15.272
1455	59.343	11.385	10.100
1456	77.001	56.228	16.601
1457	81.142	45.332	17.920
1459	81.069	2.300	20.039
1460	64.094	67.861	16.192
1462	60.365	85.693	18.998
1463	5.113	80.554	17.451
1464	48.925	82.734	15.998
1465	50.817	75.767	17.848
1466	34.384	63.443	21.587
1467	105.095	53.776	21.138