ITEM: TIMESTEP
36.410622515852616
ITEM: NUMBER OF ATOMS
1488
ITEM: BOX BOUNDS
1.0317460317460316 110.39682539682539
1.0317460317460316 87.28571428571428
2.5 48.0
ITEM: ATOMS id x y z
1	91.345	38.214	33.540
2	69.238	36.558	30.880
3	92.254	30.143	29.885
4	75.299	28.000	32.583
5	54.113	20.521	32.807
6	39.909	16.049	29.533
7	57.861	14.800	34.407
9	20.111	82.716	36.080
10	68.113	81.379	31.707
11	88.407	78.036	30.202
12	98.537	76.247	35.571
13	58.162	60.454	31.591
14	27.204	56.128	30.510
16	4.341	37.952	31.160
17	70.262	39.783	26.391
18	106.660	36.627	34.423
20	77.812	36.416	36.739
21	49.767	41.674	30.405
22	3.083	45.591	27.536
23	88.776	55.039	34.581
24	24.770	72.042	31.663
25	51.565	59.914	31.730
26	83.861	57.494	38.989
27	15.403	48.567	32.196
28	61.134	45.793	32.198
29	109.945	41.333	36.728
30	72.658	31.990	28.771
31	10.546	27.187	36.569
32	21.395	12.562	33.591
33	47.098	17.319	35.635
34	11.514	2.137	34.120
37	102.961	80.712	32.695
38	33.595	81.320	33.039
39	39.605	81.456	34.957
41	36.435	60.780	32.367
42	41.571	54.719	35.139
43	66.520	57.852	33.470
44	28.154	6.099	33.082
45	97.085	14.861	33.905
46	82.593	3.943	29.044
47	61.997	78.767	29.227
48	74.044	82.547	31.473
50	31.008	73.952	30.184
52	34.674	73.950	34.429
53	66.426	69.528	28.701
54	95.820	68.093	29.578
55	1.163	63.573	28.827
56	29.309	61.636	26.080
57	1.651	12.606	29.333
58	20.630	59.727	30.570
59	55.310	45.224	28.650
60	45.569	35.848	29.422
61	48.264	31.911	31.752
63	89.142	19.581	31.355
64	40.170	23.225	31.572
65	14.868	16.814	31.918
66	66.241	17.875	26.621
67	6.481	84.376	28.813
68	73.196	51.629	31.147
69	55.696	78.547	31.594
70	85.261	37.500	32.018
71	67.459	44.573	28.679
72	11.202	74.540	32.060
73	109.009	73.329	32.246
74	43.611	61.505	30.493
75	100.159	30.233	30.406
76	79.946	22.109	32.622
77	52.566	14.187	32.641
78	13.180	11.712	29.428
79	34.720	9.573	30.969
80	51.494	8.250	29.202
81	42.179	40.401	31.926
82	81.690	10.209	29.103
83	101.228	7.533	32.904
84	94.972	3.383	28.542
85	62.017	4.824	27.460
87	86.426	76.751	24.172
88	103.948	71.787	27.129
89	102.252	65.943	30.035
90	71.280	65.226	31.707
91	16.799	51.464	28.166
92	73.813	11.931	32.354
93	75.843	6.419	29.290
94	26.406	10.907	35.926
95	80.586	16.432	33.939
96	49.328	25.123	40.065
97	90.616	24.204	35.143
98	72.016	21.325	34.008
99	69.563	23.683	38.956
100	95.858	21.968	34.612
101	75.236	18.247	39.108
102	36.750	15.326	35.645
103	15.268	11.399	35.015
104	96.816	8.194	38.920
105	107.455	29.036	31.684
106	16.549	6.885	36.271
108	10.668	83.570	32.570
109	78.737	74.402	35.050
110	63.147	71.316	32.439
111	17.126	74.675	30.464
112	35.652	66.063	35.615
113	16.551	56.832	38.019
114	94.045	55.364	31.155
115	88.107	47.951	34.154
116	67.678	8.236	37.408
117	27.163	45.212	34.817
118	80.826	32.223	32.930
119	95.972	35.365	36.366
120	91.987	45.844	31.215
121	10.853	35.081	35.626
122	57.488	28.451	35.391
123	88.365	31.077	36.159
124	27.867	26.224	37.795
125	33.101	25.081	39.922
126	16.761	13.328	40.554
127	44.831	6.652	34.542
129	49.405	34.357	37.552
131	84.773	78.557	37.741
132	66.194	74.549	35.057
133	39.760	71.291	37.000
134	93.835	75.719	32.329
135	6.088	72.147	34.866
136	30.428	62.160	34.469
137	10.752	63.032	33.349
138	49.843	54.132	35.888
139	49.578	47.173	32.564
140	63.713	86.622	36.504
141	37.220	85.334	29.614
142	59.790	34.180	31.730
143	86.163	20.487	37.022
144	47.738	11.652	36.392
145	6.133	6.618	37.064
147	94.157	81.733	33.060
148	88.780	73.094	35.492
149	50.622	73.631	31.391
150	80.245	64.197	34.022
151	42.795	66.627	34.619
152	17.057	66.360	32.293
153	25.892	28.093	32.154
154	54.074	67.576	32.049
155	41.160	50.272	31.001
156	38.270	45.593	31.753
157	31.936	21.816	32.540
158	63.023	28.740	31.228
159	44.142	26.714	35.071
161	13.330	24.541	32.261
162	101.888	18.987	33.477
163	23.766	21.467	34.408
164	88.787	49.350	28.104
166	32.026	32.432	32.780
167	99.874	42.093	32.602
168	101.569	12.181	37.948
169	90.189	11.245	32.064
170	84.677	6.975	33.857
172	104.407	61.859	34.057
173	34.657	50.143	36.651
175	71.501	47.968	36.043
176	20.875	46.107	34.370
177	26.131	38.850	32.781
178	20.424	28.463	36.072
179	85.009	83.957	34.389
180	74.204	65.921	36.605
183	86.069	61.115	34.474
184	4.329	56.562	34.026
185	103.890	54.610	34.768
186	10.024	49.118	35.578
187	73.753	44.981	31.976
188	27.351	17.393	34.607
189	80.861	42.696	34.103
191	42.798	73.610	29.473
193	58.274	84.173	27.173
194	99.438	78.747	27.622
196	57.650	46.321	22.023
197	97.690	46.321	26.371
198	62.145	44.419	25.955
199	42.999	44.579	22.295
200	64.016	36.361	25.540
201	12.669	20.563	28.327
202	56.732	15.354	28.066
203	30.973	16.463	28.035
204	101.577	9.133	26.520
205	11.223	5.720	29.003
206	87.798	82.855	25.997
207	106.224	64.561	26.824
208	13.525	59.191	22.598
209	52.237	55.746	25.927
210	34.067	48.523	22.740
211	30.322	4.397	24.780
212	70.213	6.179	29.197
213	33.686	10.496	24.547
214	95.024	10.892	28.525
215	52.305	35.321	29.591
216	92.795	18.455	24.581
218	52.520	80.020	26.392
219	15.531	81.763	27.615
221	77.296	76.596	29.188
222	14.961	74.825	23.471
223	69.147	76.376	26.673
224	91.592	44.414	25.119
225	76.623	69.369	27.089
226	73.555	63.894	26.620
227	100.889	59.860	21.106
228	12.904	56.556	28.572
229	21.130	48.867	27.719
230	104.435	45.919	28.933
231	19.475	42.225	28.262
232	105.907	34.240	28.967
233	7.580	20.941	26.842
234	74.382	12.093	26.227
235	30.175	72.134	24.943
236	8.337	40.948	27.176
237	81.736	35.563	27.741
238	22.377	35.509	28.403
239	3.480	11.276	20.929
240	108.946	7.918	27.397
241	73.770	84.160	24.633
242	101.261	78.448	22.101
243	88.878	81.743	16.901
244	45.139	81.312	30.855
245	26.976	66.795	23.705
246	46.133	60.869	22.836
247	68.845	51.853	25.152
248	85.659	13.918	23.745
250	69.674	34.937	22.686
251	29.641	26.394	23.162
252	51.464	27.063	32.637
253	72.770	20.671	27.039
254	82.623	18.033	28.884
255	87.283	20.713	22.494
256	98.958	15.369	26.978
257	46.158	15.659	27.334
258	67.923	11.272	23.097
259	36.936	42.815	20.351
260	75.948	32.240	24.469
262	40.429	26.228	25.342
263	80.721	27.557	29.077
264	91.981	24.403	28.394
265	65.200	23.965	25.568
266	44.028	20.935	25.954
267	25.872	19.923	28.180
268	20.236	84.914	24.951
269	106.948	83.781	24.492
270	65.739	83.631	23.598
271	47.639	73.547	23.419
272	51.522	19.732	26.205
273	18.842	71.148	26.082
275	47.442	66.021	20.362
276	66.761	60.676	27.430
277	26.777	50.293	26.948
278	75.307	51.668	22.983
279	87.383	36.101	24.092
280	38.438	38.124	24.001
281	50.296	32.621	25.316
282	58.768	24.181	26.468
283	7.311	68.012	27.478
284	76.249	41.207	27.445
285	77.376	48.633	28.243
286	53.232	50.128	22.770
287	92.429	34.208	25.492
288	15.980	28.821	28.705
289	103.162	25.159	33.383
290	21.953	24.769	29.008
291	45.434	10.624	29.869
292	31.971	79.905	26.596
293	54.736	68.840	23.882
294	35.268	60.169	25.868
295	82.728	51.785	28.613
296	98.532	35.748	29.056
297	80.257	43.997	26.204
298	41.406	30.488	30.864
299	86.423	31.318	30.020
300	85.766	24.573	30.353
301	47.027	21.684	30.952
302	96.352	19.863	29.166
303	104.907	19.275	24.374
304	60.230	19.244	25.969
305	75.898	16.829	29.196
306	23.885	13.645	27.121
307	62.981	30.002	23.900
308	8.629	15.661	28.671
309	15.415	35.526	29.016
310	32.059	40.724	27.896
312	88.995	71.393	28.629
313	12.123	68.974	33.564
314	39.919	63.574	25.113
316	64.412	51.404	31.981
317	14.709	40.141	33.195
318	59.145	40.748	30.671
319	60.091	20.123	33.429
320	94.602	40.636	30.006
321	71.502	27.214	27.047
322	6.660	2.263	28.415
325	57.170	76.636	24.366
326	60.489	65.486	29.442
327	7.360	60.146	30.955
328	33.416	55.557	29.624
329	58.251	50.668	28.896
330	43.010	43.979	27.507
331	65.481	23.702	32.963
332	82.546	79.754	31.116
333	67.029	11.920	28.887
335	78.574	54.591	30.024
336	8.472	53.861	29.470
337	10.509	43.667	32.374
338	29.281	34.980	25.582
339	5.251	26.492	31.925
340	33.664	23.291	25.430
341	106.858	24.537	27.568
342	41.885	6.490	30.351
344	107.307	56.504	27.321
346	26.810	83.506	26.169
348	39.451	68.966	26.954
349	96.594	62.046	30.003
350	19.683	62.349	24.935
352	61.370	56.891	29.466
353	40.381	56.234	27.882
354	98.943	52.395	29.708
356	16.540	6.370	26.053
357	73.914	56.686	27.638
358	14.061	64.590	26.436
359	23.627	77.844	30.585
360	34.737	69.978	20.664
361	22.088	65.417	28.911
362	81.104	60.372	29.066
363	45.914	55.841	26.830
364	48.205	46.476	25.592
365	24.677	43.324	28.508
366	109.716	40.547	29.149
367	34.849	33.681	26.232
368	100.005	58.189	28.923
369	100.919	36.927	34.705
370	88.941	30.445	21.441
371	33.300	27.465	30.474
372	18.758	18.313	26.154
373	61.986	9.793	26.294
374	23.610	6.218	28.017
375	86.033	4.570	24.757
378	49.344	66.531	28.051
379	8.677	32.825	28.402
380	98.933	48.814	33.902
381	28.042	50.115	35.457
384	82.444	79.560	45.290
385	66.031	75.094	45.180
386	10.848	70.965	46.172
387	86.662	66.378	44.502
388	87.091	60.198	44.151
389	51.455	56.188	44.471
391	89.426	52.099	44.529
394	93.724	45.118	42.282
395	55.645	44.925	47.701
396	43.125	42.300	43.508
397	54.448	39.008	43.120
398	43.936	24.818	45.409
399	66.826	20.085	43.241
400	61.747	17.526	44.867
401	78.535	12.129	46.194
402	53.840	8.674	44.519
403	27.876	28.434	43.877
405	27.347	46.708	45.978
406	61.531	80.751	36.633
410	78.412	44.474	43.760
411	93.810	32.133	42.082
412	13.960	19.290	43.117
413	88.972	18.267	42.680
414	71.450	17.198	45.023
415	100.914	11.501	46.122
416	29.097	13.758	45.939
417	108.510	74.999	43.059
418	40.315	66.944	43.745
419	54.560	64.926	42.113
422	44.939	50.791	41.236
423	21.669	55.803	42.407
424	16.918	52.671	45.342
425	22.281	48.411	47.097
426	80.688	9.424	40.890
427	64.965	10.243	44.603
428	73.477	7.536	38.346
429	46.711	78.571	46.213
430	17.332	71.443	41.649
431	99.683	72.252	45.173
432	58.473	60.124	39.402
433	12.772	58.209	45.261
434	94.678	37.218	47.093
435	50.737	37.249	46.520
436	13.350	39.053	44.649
437	25.593	33.244	41.206
438	64.660	27.775	46.490
439	55.378	81.125	42.137
440	87.884	31.985	45.452
441	11.874	27.010	43.519
442	100.251	6.660	43.874
443	87.308	5.697	44.734
444	48.221	1.575	37.949
445	39.595	2.459	40.824
446	69.366	85.217	38.805
447	8.652	74.843	39.071
448	69.148	75.873	40.089
449	76.290	58.547	41.585
450	58.513	27.011	44.840
452	25.079	1.977	40.588
453	75.835	23.890	37.454
454	18.897	79.323	43.465
455	39.642	72.400	43.100
456	50.995	74.347	42.879
457	67.218	67.566	44.617
458	22.750	67.546	42.950
459	107.099	69.444	44.948
460	45.838	62.361	43.934
461	97.117	66.383	43.628
462	34.456	58.680	44.552
463	9.390	12.785	42.308
464	97.344	54.898	41.712
465	104.313	44.440	41.480
466	10.555	46.580	40.646
467	44.660	35.431	45.000
468	101.272	30.354	42.437
469	49.084	30.394	46.060
471	73.327	29.729	42.530
473	21.068	21.189	43.745
474	9.411	51.196	43.586
475	23.893	77.855	45.036
476	66.915	84.260	46.520
477	103.893	84.195	46.604
479	61.339	37.667	44.130
488	89.570	26.265	40.467
494	5.042	72.614	45.949
495	28.469	63.209	45.652
497	79.957	53.011	43.185
498	101.545	22.307	46.395
499	99.624	49.717	45.041
500	65.840	56.391	41.947
501	44.547	57.425	44.430
504	91.699	56.022	41.441
514	42.463	5.717	45.043
517	88.741	81.036	46.098
518	58.711	76.443	43.019
521	29.519	68.461	44.456
522	41.155	19.200	44.603
523	29.194	57.360	41.849
525	1.058	39.848	41.805
526	82.481	17.799	46.215
528	94.460	8.228	44.903
530	60.713	5.102	46.965
531	29.387	84.147	44.070
532	99.315	83.228	39.955
533	34.552	66.653	45.056
534	103.384	64.042	41.947
535	36.783	21.927	43.885
536	19.784	61.274	43.888
537	109.318	38.671	44.494
539	28.468	40.962	43.230
540	85.135	26.520	46.511
544	69.666	5.981	45.616
546	56.277	52.573	46.401
547	37.152	42.163	47.234
550	108.012	31.744	44.972
551	53.696	31.567	40.885
552	5.657	22.470	44.262
553	20.037	14.720	43.937
555	107.684	2.901	43.985
556	48.879	85.061	41.120
557	75.439	75.977	45.520
558	29.313	78.498	42.672
559	76.059	24.319	46.480
561	62.925	62.131	43.197
562	15.214	65.619	43.771
563	74.067	51.742	44.211
565	24.057	44.185	40.921
566	7.902	39.500	42.104
569	38.864	32.772	45.968
570	33.032	71.391	40.983
571	96.580	53.489	37.182
573	64.979	41.918	42.906
574	4.481	27.728	40.399
575	6.860	15.047	34.467
576	61.986	8.312	33.454
577	83.601	14.912	38.346
578	52.423	6.108	34.918
580	27.465	72.922	40.691
582	80.967	53.739	35.026
583	45.476	31.439	40.416
584	32.927	55.819	35.342
585	5.195	49.793	33.831
586	94.705	43.189	36.895
587	28.180	36.990	38.364
588	82.411	32.927	38.848
589	82.725	25.755	36.685
590	1.442	20.029	29.536
591	54.651	18.354	39.139
592	73.458	12.314	42.251
593	59.644	13.151	39.613
594	25.664	50.403	41.588
595	25.673	9.490	42.829
596	36.635	36.352	41.531
597	66.551	45.897	34.782
598	6.756	18.479	38.256
599	82.145	3.839	39.374
600	92.302	81.863	40.547
601	103.801	85.531	35.890
603	90.559	68.222	40.556
604	21.609	64.169	37.534
605	53.450	60.591	37.391
606	89.565	36.739	39.416
607	7.101	42.570	37.440
608	63.496	24.305	40.633
609	31.154	16.324	40.553
610	32.137	8.501	39.320
611	11.637	8.427	40.108
612	61.757	6.575	40.047
613	18.137	85.217	40.943
614	29.302	84.546	37.686
615	62.114	64.035	35.532
616	35.489	61.112	38.770
617	53.327	51.022	40.758
618	46.630	20.838	41.832
619	11.776	18.657	36.694
620	22.077	7.958	38.088
621	57.974	84.060	34.509
622	79.013	81.210	38.072
623	18.147	70.588	35.310
624	67.649	68.400	35.970
626	24.688	59.934	35.709
627	94.801	59.632	36.171
628	7.339	59.335	41.887
629	87.796	42.508	36.168
630	34.874	42.943	35.490
631	48.314	81.747	36.446
632	47.372	40.108	38.304
633	29.425	69.359	36.300
634	98.026	71.574	40.436
635	27.044	66.698	29.868
636	93.067	69.967	35.095
637	6.089	65.796	32.946
638	98.352	64.467	36.232
639	76.791	57.929	34.879
641	57.687	50.663	34.921
642	27.969	77.764	35.351
644	36.784	9.057	36.384
645	107.544	9.760	36.919
647	25.284	80.313	39.011
650	43.880	76.459	37.654
652	47.332	58.792	37.846
653	68.346	59.360	38.116
654	22.158	53.454	35.979
655	88.236	9.171	38.639
656	56.412	45.260	40.730
657	76.875	35.750	30.933
658	37.104	34.975	34.133
659	64.007	31.201	40.507
660	68.635	29.349	33.547
661	101.686	31.181	36.976
662	80.882	20.928	39.483
663	64.602	18.312	36.344
664	42.498	13.446	34.483
665	69.752	13.711	35.962
666	65.388	38.287	33.224
667	51.570	8.478	22.590
668	104.128	23.828	39.017
669	12.841	40.912	38.580
670	7.026	78.679	31.621
671	104.336	76.132	39.035
672	60.739	71.731	38.097
673	24.326	71.341	46.595
674	71.683	68.733	41.637
675	87.558	67.781	35.001
676	2.819	68.966	40.120
677	8.255	66.352	41.009
678	27.464	64.080	40.258
679	105.140	78.688	44.368
680	4.620	62.865	39.612
681	34.306	40.740	41.004
682	33.470	28.671	44.939
683	79.704	25.535	42.450
684	51.693	12.280	38.961
685	43.135	83.456	39.867
686	93.572	76.529	38.973
687	21.479	76.732	37.995
688	73.041	63.478	43.410
689	84.905	63.996	38.423
690	70.042	47.981	41.925
691	40.779	61.615	38.347
692	61.819	86.010	42.668
694	83.816	38.873	40.526
695	48.273	15.173	43.624
696	12.637	83.502	38.450
698	85.760	74.009	44.126
699	79.454	74.725	40.579
700	32.691	77.779	38.363
701	80.951	67.008	41.989
702	106.522	52.848	42.382
704	38.958	54.806	42.588
705	20.321	40.476	39.122
706	5.890	33.265	41.276
707	97.537	27.900	38.415
708	52.804	21.231	43.823
709	97.511	15.679	41.440
710	36.899	20.440	38.622
711	66.341	14.845	40.605
712	18.318	8.512	43.367
714	50.393	43.306	42.054
715	22.058	29.016	41.539
716	32.729	48.069	43.010
717	100.025	48.086	39.085
718	74.008	41.521	37.577
719	61.611	41.720	37.690
720	56.859	37.318	37.177
721	77.406	38.708	43.414
722	67.062	36.271	39.926
723	79.019	32.394	43.196
724	40.351	27.462	38.713
725	61.198	19.249	40.514
726	19.262	19.634	38.207
727	59.560	52.784	38.949
728	107.949	3.975	35.615
729	41.469	78.100	41.959
730	53.623	74.907	36.713
731	55.119	69.145	37.924
732	14.138	63.488	39.066
733	76.556	49.212	38.300
734	45.908	49.900	35.895
735	92.062	48.546	38.383
736	99.573	38.335	40.565
737	72.474	36.011	38.565
739	39.075	48.638	39.625
740	47.570	64.291	38.655
742	83.721	49.445	40.514
743	41.792	38.732	38.688
744	68.852	37.021	46.859
745	106.283	35.219	40.541
746	25.144	19.010	40.826
748	34.739	9.713	45.347
750	19.329	3.190	40.680
752	67.811	52.311	37.271
753	18.007	47.405	41.188
754	109.226	45.523	45.980
755	109.115	27.549	41.567
756	16.693	31.442	41.353
757	93.499	22.054	39.005
758	47.782	8.090	42.581
759	78.718	6.935	35.088
760	54.180	4.584	40.931
761	6.124	83.224	40.062
762	13.493	52.296	40.544
763	77.429	6.146	23.582
764	42.272	44.774	35.516
765	47.989	3.355	24.006
766	78.358	18.761	11.910
767	28.949	15.415	8.748
768	92.356	9.795	5.058
769	36.925	6.793	9.906
771	28.694	67.694	6.922
772	24.461	70.658	10.458
773	50.858	61.085	5.084
774	83.485	57.071	11.139
775	72.844	49.108	8.878
776	41.189	48.118	6.447
777	109.460	37.985	11.452
778	74.781	29.589	6.768
779	71.732	10.135	3.699
780	8.385	9.347	9.028
784	65.748	70.196	9.855
785	11.061	15.286	10.925
787	38.545	34.585	9.150
788	88.045	34.505	8.568
789	22.123	51.840	10.285
790	86.201	46.321	6.931
791	5.710	48.201	6.790
792	101.929	30.671	8.987
793	108.731	24.985	11.107
794	13.950	25.377	10.883
795	39.788	22.268	11.369
796	26.870	20.757	8.138
797	3.318	17.280	8.357
798	105.411	63.161	8.222
799	51.564	10.623	12.047
801	74.408	76.574	7.084
802	17.077	65.707	8.492
803	70.555	58.697	7.731
804	65.558	56.411	7.575
805	48.469	48.865	6.018
806	89.939	43.406	2.467
807	72.872	41.912	9.956
808	26.828	36.559	9.905
809	74.125	11.713	12.413
810	20.997	58.999	9.127
811	38.100	61.107	7.421
812	93.474	39.678	7.470
814	77.257	25.749	10.349
815	102.304	16.391	8.349
816	77.979	5.869	11.175
817	69.033	81.294	8.496
819	105.367	77.323	9.509
820	16.252	70.540	4.419
821	78.178	66.269	8.085
822	66.335	30.488	10.032
823	60.990	69.988	6.208
824	17.682	54.081	5.523
825	54.793	51.570	6.383
827	3.522	38.955	5.794
828	70.440	38.800	6.403
829	44.312	35.777	5.607
830	33.406	32.494	6.452
831	16.247	30.730	8.167
832	37.613	27.574	7.404
833	35.040	66.219	5.048
834	11.463	49.231	6.181
835	82.790	36.845	6.771
836	15.699	36.683	11.233
837	8.880	38.672	8.549
838	52.459	40.244	4.305
839	107.389	32.910	5.507
840	94.148	30.831	9.473
841	50.042	29.705	6.791
842	5.475	21.257	10.076
843	16.792	18.608	12.128
844	41.858	18.550	5.493
845	72.992	17.247	7.492
846	70.494	33.530	3.706
847	98.015	5.687	7.982
848	58.453	86.339	11.597
849	31.931	73.438	8.323
850	71.051	68.267	6.426
851	6.119	60.538	7.315
852	101.908	60.114	3.110
853	10.661	56.263	7.629
854	46.314	55.691	5.719
855	18.464	45.148	9.062
858	66.641	53.718	11.649
859	42.817	65.391	8.677
861	32.999	56.307	12.457
862	62.021	58.742	10.442
863	99.782	52.679	14.691
864	16.698	50.489	12.559
865	45.882	40.234	8.633
866	19.217	31.255	13.252
867	69.516	7.244	7.649
868	57.446	5.468	11.029
870	93.633	56.639	13.066
871	34.872	82.782	10.110
872	27.738	56.547	9.795
873	108.726	48.881	13.982
874	88.682	44.241	15.239
875	77.592	47.040	11.509
876	4.754	44.207	10.295
877	35.602	41.657	12.112
878	28.238	30.156	8.647
879	51.136	35.775	9.798
880	49.763	28.654	14.352
881	76.261	61.653	9.411
882	57.169	29.589	13.040
883	65.409	62.182	9.281
884	33.095	62.768	10.425
885	94.732	49.669	10.938
886	53.032	56.976	8.671
887	103.572	45.673	9.858
888	107.320	33.113	11.494
889	44.062	25.936	12.296
890	95.179	25.551	13.132
891	63.640	24.354	11.098
892	70.937	23.006	10.261
893	60.153	20.720	12.270
894	55.749	68.446	11.211
895	81.765	14.569	14.501
896	101.015	9.860	17.487
897	72.280	5.917	14.077
898	93.193	83.167	12.973
900	75.200	80.658	12.478
901	63.889	82.764	9.830
902	55.382	75.572	14.433
903	98.111	65.411	13.044
904	91.511	62.325	12.466
905	44.669	13.786	8.664
906	31.980	24.266	8.187
909	62.160	30.247	14.432
910	49.234	24.116	9.474
911	93.151	16.144	9.144
912	16.921	11.485	12.634
913	42.235	3.024	11.868
914	107.532	4.748	13.333
916	11.354	65.297	6.929
917	83.274	62.102	8.467
918	65.154	39.784	8.590
919	31.423	48.832	9.048
920	26.745	43.648	8.829
921	63.744	46.973	9.359
922	58.206	36.135	11.956
923	83.805	18.858	9.664
924	89.051	7.302	10.423
925	22.291	12.131	7.167
926	26.248	5.802	8.154
927	52.055	83.573	4.739
928	12.191	84.196	7.395
929	11.813	44.592	11.418
930	66.980	14.125	14.392
931	102.353	37.852	12.458
932	82.562	50.209	10.555
933	40.227	81.766	6.106
935	15.406	59.002	9.431
936	79.941	47.922	6.014
937	75.603	35.162	8.998
938	32.437	23.714	14.006
939	33.693	10.751	8.420
940	50.557	5.760	8.486
941	66.467	7.140	12.799
942	54.901	44.135	10.156
943	32.046	2.411	10.156
944	58.348	79.916	10.887
945	107.866	81.176	13.210
946	98.636	77.603	10.748
947	19.517	74.404	8.589
948	69.728	75.276	11.674
949	40.571	73.242	8.678
951	12.789	72.860	8.151
952	45.943	59.957	10.099
953	21.945	80.201	5.871
954	34.304	19.180	7.047
955	14.935	13.435	6.221
956	82.046	12.138	6.199
957	76.781	57.996	3.817
959	52.369	46.180	2.720
960	104.840	37.980	3.378
962	16.613	25.280	4.270
963	54.173	23.061	4.817
964	20.763	21.048	4.634
965	97.431	15.425	3.751
966	16.440	59.414	2.657
973	25.378	73.613	5.983
981	46.867	21.473	3.930
982	2.299	13.253	3.625
983	85.386	7.252	2.797
985	100.601	84.142	4.204
986	55.198	77.220	3.849
987	6.723	74.680	7.566
990	29.437	60.348	5.160
992	8.343	44.038	4.037
995	76.411	7.758	5.067
996	15.578	86.885	3.393
1000	99.782	60.662	9.218
1001	8.085	53.446	2.923
1007	68.311	74.572	4.535
1010	103.291	52.035	3.663
1012	96.961	44.736	3.051
1013	62.197	43.820	2.893
1017	4.829	32.300	2.951
1023	62.169	4.779	21.372
1026	28.258	44.059	3.201
1029	27.005	34.800	4.139
1032	27.120	24.963	4.674
1033	3.292	21.230	4.238
1035	32.381	1.691	3.474
1042	78.004	40.549	6.686
1045	21.490	28.128	4.419
1050	5.826	65.630	10.730
1051	82.769	24.159	3.941
1054	30.806	53.931	5.022
1055	69.671	53.041	4.768
1056	60.483	50.441	5.715
1057	82.045	43.972	10.176
1059	39.546	39.050	2.565
1060	32.804	38.356	7.967
1061	97.119	35.674	7.490
1062	24.760	55.394	4.884
1063	20.152	36.811	6.212
1065	20.734	24.078	9.931
1066	101.381	24.357	7.091
1067	60.034	25.663	6.039
1068	46.476	2.211	2.998
1070	18.596	85.950	8.919
1071	16.435	78.806	7.227
1073	58.450	34.800	6.368
1075	46.600	69.305	9.451
1076	99.372	70.351	11.137
1077	49.214	12.408	6.629
1078	63.816	6.148	7.992
1079	28.918	78.401	8.578
1080	82.133	70.561	6.060
1081	89.063	67.463	5.544
1082	50.369	74.736	9.466
1083	86.275	62.700	3.503
1084	22.522	65.355	6.225
1085	58.163	56.171	6.288
1086	93.003	61.463	7.369
1088	26.150	49.538	7.042
1089	44.318	28.820	8.232
1090	68.479	20.425	6.139
1091	9.674	20.094	6.174
1092	68.362	13.119	9.232
1093	49.157	18.252	9.302
1094	13.981	8.414	8.774
1095	20.269	3.193	4.070
1097	98.212	48.898	6.121
1098	104.428	25.935	3.596
1100	88.269	57.400	4.064
1101	69.344	44.941	5.636
1102	87.296	41.371	8.503
1103	8.935	28.482	5.860
1104	28.685	9.923	3.802
1105	11.129	3.687	4.789
1106	91.435	4.436	2.685
1107	34.939	80.700	3.907
1108	60.959	77.542	6.114
1109	12.061	79.636	3.501
1111	96.068	74.330	4.750
1114	41.804	60.779	2.720
1115	63.142	60.861	3.394
1116	58.277	61.673	7.467
1117	103.590	55.346	10.070
1118	86.719	51.835	6.064
1119	103.781	44.028	4.625
1120	33.273	44.975	2.812
1122	56.341	67.506	3.661
1124	105.481	69.651	6.326
1125	22.507	41.992	4.413
1128	67.245	26.704	5.270
1129	91.543	25.290	8.174
1130	107.401	21.331	5.032
1131	96.162	20.521	8.549
1134	50.424	65.696	7.023
1135	42.464	10.707	4.228
1136	3.295	7.376	6.619
1137	58.238	5.271	4.643
1139	103.769	8.075	6.889
1145	107.525	12.760	7.870
1146	50.557	70.518	13.375
1148	58.672	72.932	9.817
1149	88.155	8.217	21.850
1150	34.488	77.424	21.964
1151	54.753	69.702	17.113
1152	22.860	65.741	20.027
1153	85.997	60.085	15.485
1154	63.253	54.628	23.097
1155	63.583	47.592	19.961
1156	99.723	43.111	18.480
1157	70.328	40.770	20.268
1158	84.101	30.945	21.945
1159	14.129	17.622	21.499
1160	6.797	20.004	20.855
1161	56.549	21.392	20.108
1162	77.549	20.166	22.165
1163	36.507	16.134	17.993
1164	28.278	18.358	17.331
1165	72.955	8.131	18.605
1166	25.885	2.853	19.538
1167	81.166	82.427	21.019
1168	38.516	9.444	19.439
1169	96.569	13.635	20.963
1170	68.887	28.302	22.018
1171	43.434	39.553	19.891
1172	24.678	82.960	19.705
1173	108.613	74.908	16.911
1174	16.108	70.692	19.780
1175	84.983	66.787	19.715
1176	74.207	60.985	20.973
1177	7.667	49.341	26.108
1178	46.502	46.513	16.324
1179	23.318	37.729	19.559
1181	94.390	73.555	17.118
1182	39.368	14.715	23.289
1184	8.272	76.336	20.991
1185	103.721	68.657	22.111
1186	34.685	56.295	23.309
1187	18.459	48.139	22.397
1188	104.386	47.473	23.067
1189	94.524	46.443	16.903
1190	20.162	42.525	21.620
1191	77.785	40.035	20.711
1192	18.781	1.663	21.926
1193	76.787	74.554	22.328
1194	27.452	71.640	17.564
1195	70.227	65.722	18.369
1198	64.056	22.376	20.443
1199	80.701	11.534	19.373
1201	30.374	65.746	16.194
1202	95.172	67.813	20.085
1203	7.614	64.956	18.822
1204	106.427	61.387	20.003
1205	80.049	34.383	18.561
1206	21.534	56.057	25.699
1207	85.724	44.245	23.559
1208	96.153	35.121	19.634
1209	88.448	35.689	18.208
1210	5.871	32.380	17.351
1211	30.145	30.981	18.127
1212	46.619	26.722	23.940
1213	94.546	28.657	20.411
1214	27.062	25.031	18.746
1215	17.625	18.233	18.152
1216	105.292	44.908	16.594
1217	79.803	84.235	26.828
1218	19.218	32.596	21.320
1219	36.908	36.865	18.119
1220	6.426	56.531	22.470
1221	37.914	52.995	19.436
1222	84.420	39.972	18.872
1223	8.625	37.137	21.963
1224	11.146	27.420	17.034
1225	101.101	26.433	19.916
1226	76.969	26.093	22.062
1227	72.296	22.797	20.996
1228	95.791	22.691	18.487
1229	52.329	37.155	22.584
1230	52.723	16.281	21.826
1231	48.236	12.268	19.383
1232	27.114	7.369	16.669
1233	21.121	4.185	14.367
1234	103.073	82.180	17.015
1235	15.710	80.808	20.264
1236	4.321	70.389	19.550
1237	39.949	59.335	19.434
1239	2.530	40.692	24.176
1240	103.850	12.204	21.791
1241	53.657	80.875	20.657
1242	32.789	84.140	21.648
1243	18.079	12.325	24.447
1244	31.042	41.957	20.522
1245	47.847	39.717	24.476
1246	12.598	31.056	22.929
1248	97.400	23.517	23.473
1249	34.556	22.506	19.439
1250	23.115	12.811	20.319
1252	47.178	83.366	23.443
1253	43.945	54.223	14.898
1254	72.133	72.426	24.583
1255	86.678	57.888	23.518
1256	78.900	55.953	24.010
1257	91.794	57.953	19.877
1258	45.331	52.426	21.572
1259	12.668	49.726	23.802
1260	26.270	45.066	22.553
1261	5.588	43.158	19.999
1262	13.392	37.601	23.889
1265	23.918	30.208	26.074
1266	8.559	62.768	24.465
1267	98.220	73.657	26.568
1268	34.986	67.584	12.185
1269	86.530	70.286	23.437
1270	60.954	65.995	22.353
1271	66.672	69.834	22.122
1272	98.722	50.971	20.940
1274	39.740	49.988	23.589
1275	89.039	9.590	27.843
1276	42.869	8.330	24.730
1277	82.743	73.755	20.963
1278	6.954	8.620	27.590
1279	99.269	65.096	23.832
1280	58.541	37.455	26.004
1281	102.663	32.590	23.928
1282	42.512	34.509	23.433
1283	8.660	15.812	22.334
1284	62.972	13.374	20.688
1286	8.242	83.260	23.384
1287	6.192	74.728	26.375
1288	27.627	77.380	21.658
1289	1.565	19.425	15.631
1290	16.963	24.238	24.086
1291	43.427	17.046	19.513
1292	108.857	81.537	19.845
1294	45.405	77.812	21.138
1295	61.937	79.883	23.543
1296	40.299	77.939	25.442
1298	101.139	65.678	17.979
1299	81.065	62.254	22.632
1300	61.157	60.111	21.833
1302	53.591	62.029	20.613
1303	63.336	40.019	22.154
1304	106.190	40.827	21.795
1305	100.086	40.518	24.510
1306	62.478	33.462	19.125
1307	35.065	28.467	20.274
1308	57.491	30.258	25.373
1309	9.117	27.046	26.678
1310	81.479	23.305	25.649
1311	31.698	15.345	21.017
1312	13.715	43.113	24.665
1313	85.887	25.709	18.306
1314	93.789	6.082	18.877
1315	50.738	45.782	20.973
1316	82.928	17.118	19.930
1317	22.800	19.491	21.983
1318	108.993	15.328	17.857
1319	56.244	11.609	24.134
1321	60.152	9.364	18.814
1322	48.805	6.397	17.913
1323	22.407	7.873	20.611
1324	56.535	4.140	23.687
1325	72.519	44.042	24.212
1326	9.349	3.879	20.456
1327	21.081	78.443	20.623
1328	69.791	81.670	26.978
1329	8.763	71.024	23.345
1331	11.526	68.347	19.373
1332	95.543	58.651	24.148
1333	81.331	57.234	17.264
1334	89.247	53.470	24.224
1335	84.275	50.206	22.768
1337	69.151	16.915	19.078
1338	38.067	76.444	31.223
1339	66.714	7.667	19.367
1340	16.741	70.623	12.574
1341	18.863	60.852	13.921
1342	38.540	56.972	12.341
1344	15.602	54.894	17.966
1345	7.843	53.762	12.650
1346	32.295	50.165	16.410
1347	91.824	42.100	19.196
1348	9.235	40.613	15.572
1349	74.688	42.190	14.976
1350	52.784	37.642	15.630
1351	34.339	28.736	13.781
1352	75.475	29.177	16.538
1353	107.297	21.094	15.516
1354	89.746	19.598	15.699
1355	63.136	20.915	5.488
1356	58.028	3.146	17.529
1358	6.372	85.543	8.371
1359	76.814	73.316	10.627
1360	12.740	77.815	13.121
1361	20.620	82.928	14.504
1362	83.732	9.504	13.402
1363	43.383	30.727	15.760
1364	56.815	34.223	18.963
1365	7.931	20.451	15.255
1366	43.394	15.142	14.796
1367	104.042	13.621	15.262
1368	94.566	13.702	14.363
1369	31.998	4.564	15.902
1370	40.054	83.040	17.607
1371	81.811	78.722	13.570
1372	101.425	19.009	19.897
1373	89.186	75.936	18.550
1374	21.031	66.060	13.110
1375	71.061	61.769	14.599
1376	63.617	43.760	14.945
1377	107.456	38.352	16.079
1378	2.315	38.470	16.625
1379	26.321	34.006	14.671
1381	34.093	11.907	15.802
1382	7.571	12.802	15.126
1383	103.041	73.420	14.107
1384	8.532	75.134	12.246
1385	90.673	70.763	10.641
1386	107.884	72.709	10.466
1387	21.010	53.580	16.183
1388	61.670	51.267	12.506
1389	99.051	41.874	8.041
1390	42.082	40.409	13.488
1391	45.950	34.840	13.802
1392	63.275	36.112	14.066
1393	32.623	37.213	14.564
1394	80.685	30.796	6.545
1395	25.040	28.709	15.623
1396	11.188	58.703	14.863
1397	22.683	21.662	15.181
1398	3.211	12.385	12.011
1399	78.831	6.515	17.425
1400	23.773	10.463	12.522
1401	47.925	1.815	10.223
1403	48.881	81.152	10.049
1404	38.711	79.516	10.634
1405	25.740	76.456	13.835
1407	34.648	18.606	12.977
1408	14.382	37.247	17.736
1409	82.964	66.600	14.152
1411	43.581	68.230	15.418
1412	88.371	50.700	12.165
1413	42.051	53.042	9.512
1414	62.857	54.632	16.887
1415	45.994	46.104	10.181
1416	21.765	43.124	14.703
1417	88.837	30.215	12.986
1418	45.205	21.662	15.809
1420	33.688	78.101	13.838
1422	73.616	52.728	13.497
1423	69.208	45.219	12.171
1424	79.948	34.168	12.985
1425	82.427	29.978	16.021
1426	7.671	28.329	12.135
1427	70.702	30.212	13.251
1428	86.260	24.534	12.129
1429	54.641	16.295	11.733
1430	88.009	13.990	7.558
1431	78.916	53.791	11.238
1432	107.080	66.310	14.027
1435	74.869	18.667	15.217
1436	51.273	15.519	16.087
1437	74.526	79.431	18.446
1439	79.570	68.396	18.691
1440	57.043	50.134	17.099
1441	89.824	48.792	20.022
1442	7.309	46.989	15.058
1443	68.744	48.846	18.717
1444	48.277	40.734	18.088
1445	27.790	42.190	14.155
1446	75.986	13.747	17.843